 Gaussian 16, Revision A.03,
 Gaussian 16:  ES64L-G16RevA.03 25-Dec-2016

 --------------------------------------------------------
 # opt=modredundant wb97xd/6-311+g(d,p) geom=connectivity
 --------------------------------------------------------

 -------------------
 Title Card Required
 -------------------
 Symbolic Z-matrix:
 Charge =  0 Multiplicity = 1

 SCF Done:  E(RwB97XD) =  -1333.82587803     A.U. after   16 cycles
 SCF Done:  E(RwB97XD) =  -1333.82678804     A.U. after   13 cycles
 SCF Done:  E(RwB97XD) =  -1333.82687157     A.U. after   13 cycles
 SCF Done:  E(RwB97XD) =  -1333.82687881     A.U. after   12 cycles
 SCF Done:  E(RwB97XD) =  -1333.82688838     A.U. after   12 cycles
 SCF Done:  E(RwB97XD) =  -1333.82688878     A.U. after   11 cycles
 SCF Done:  E(RwB97XD) =  -1333.82688892     A.U. after   11 cycles
 SCF Done:  E(RwB97XD) =  -1333.82688901     A.U. after    9 cycles
 SCF Done:  E(RwB97XD) =  -1333.82688912     A.U. after   10 cycles
 SCF Done:  E(RwB97XD) =  -1333.82688925     A.U. after   10 cycles
 SCF Done:  E(RwB97XD) =  -1333.82688930     A.U. after    9 cycles
 SCF Done:  E(RwB97XD) =  -1333.82688933     A.U. after    9 cycles
 Optimization completed.
    -- Stationary point found.

                         Standard orientation:
 ---------------------------------------------------------------------
 Center     Atomic      Atomic             Coordinates (Angstroms)
 Number     Number       Type             X           Y           Z
 ---------------------------------------------------------------------
      1          6           0       -0.597973   -0.409786   -0.016357
      2          6           0       -1.905733    0.018236    0.048016
      3          6           0       -2.862338   -1.034262    0.003057
      4          6           0       -2.265715   -2.253574   -0.103311
      5         16           0       -0.555979   -2.146354   -0.144298
      6          1           0       -3.933002   -0.896042    0.049412
      7          1           0       -2.746360   -3.219062   -0.146791
      8          6           0        0.598712    0.408117   -0.032953
      9          6           0        1.906313   -0.018292    0.044399
     10         16           0        0.555089    2.145699   -0.144535
     11          6           0        2.862169    1.035006    0.003791
     12          6           0        2.264656    2.254151   -0.099703
     13          1           0        3.932868    0.897534    0.051600
     14          1           0        2.744657    3.219920   -0.143933
     15          8           0       -2.177130    1.343175    0.136748
     16          8           0        2.177917   -1.342646    0.140832
     17          6           0        3.533911   -1.729439    0.189852
     18          1           0        4.035047   -1.310280    1.069534
     19          1           0        3.537002   -2.815940    0.258953
     20          1           0        4.067476   -1.422771   -0.716747
     21          6           0       -3.532910    1.730125    0.190273
     22          1           0       -4.030376    1.313031    1.073003
     23          1           0       -3.535683    2.816796    0.256648
     24          1           0       -4.070243    1.421367   -0.713389
 ---------------------------------------------------------------------

 The electronic state is 1-A.
 Alpha  occ. eigenvalues --  -89.03805 -89.03801 -19.28167 -19.28164 -10.34415
 Alpha  occ. eigenvalues --  -10.34410 -10.33931 -10.33927 -10.31545 -10.31509
 Alpha  occ. eigenvalues --  -10.30908 -10.30907 -10.28891 -10.28891  -8.07831
 Alpha  occ. eigenvalues --   -8.07828  -6.02673  -6.02670  -6.02278  -6.02275
 Alpha  occ. eigenvalues --   -6.01921  -6.01918  -1.17904  -1.17825  -0.99286
 Alpha  occ. eigenvalues --   -0.97492  -0.87153  -0.85337  -0.83832  -0.81512
 Alpha  occ. eigenvalues --   -0.78950  -0.76901  -0.68819  -0.67492  -0.64228
 Alpha  occ. eigenvalues --   -0.64223  -0.62721  -0.57152  -0.56674  -0.56356
 Alpha  occ. eigenvalues --   -0.55928  -0.54247  -0.52797  -0.52439  -0.49575
 Alpha  occ. eigenvalues --   -0.49405  -0.48699  -0.46645  -0.45529  -0.44417
 Alpha  occ. eigenvalues --   -0.43245  -0.41663  -0.40893  -0.40550  -0.40503
 Alpha  occ. eigenvalues --   -0.35244  -0.31124  -0.30834  -0.25241
 Alpha virt. eigenvalues --    0.02756   0.05921   0.06355   0.06869   0.07704
 Alpha virt. eigenvalues --    0.07781   0.08143   0.08544   0.09396   0.09420
 Alpha virt. eigenvalues --    0.09874   0.10619   0.11560   0.11599   0.11850

 Mulliken charges:
               1
     1  C    0.816066
     2  C   -0.071878
     3  C   -0.441926
     4  C   -0.248572
     5  S   -0.293159
     6  H    0.152736
     7  H    0.182848
     8  C    0.671412
     9  C   -0.258510
    10  S   -0.290221
    11  C   -0.443884
    12  C   -0.275463
    13  H    0.152668
    14  H    0.182939
    15  O   -0.106689
    16  O   -0.105756
    17  C   -0.300595
    18  H    0.152612
    19  H    0.177604
    20  H    0.157467
    21  C   -0.297589
    22  H    0.152183
    23  H    0.177454
    24  H    0.158254
 Sum of Mulliken charges =  -0.00000

 Dipole moment (field-independent basis, Debye):
    X=             -0.0013    Y=              0.0044    Z=              0.1516  Tot=              0.1517
 Quadrupole moment (field-independent basis, Debye-Ang):
   XX=            -70.0964   YY=            -88.9582   ZZ=           -101.2651
   XY=             -2.8477   XZ=             -0.0001   YZ=              0.0348

 Normal termination of Gaussian 16 at Thu Feb  6 20:45:39 2020.
