 Gaussian 16, Revision A.03,
 Gaussian 16:  ES64L-G16RevA.03 25-Dec-2016

 --------------------------------------------------------
 # opt=modredundant wb97xd/6-311+g(d,p) geom=connectivity
 --------------------------------------------------------

 -------------------
 Title Card Required
 -------------------
 Symbolic Z-matrix:
 Charge =  0 Multiplicity = 1

 SCF Done:  E(RwB97XD) =  -1333.82284142     A.U. after   16 cycles
 SCF Done:  E(RwB97XD) =  -1333.82441075     A.U. after   14 cycles
 SCF Done:  E(RwB97XD) =  -1333.82456975     A.U. after   13 cycles
 SCF Done:  E(RwB97XD) =  -1333.82458360     A.U. after   13 cycles
 SCF Done:  E(RwB97XD) =  -1333.82460288     A.U. after   13 cycles
 SCF Done:  E(RwB97XD) =  -1333.82460352     A.U. after   11 cycles
 Optimization completed.
    -- Stationary point found.

                         Standard orientation:
 ---------------------------------------------------------------------
 Center     Atomic      Atomic             Coordinates (Angstroms)
 Number     Number       Type             X           Y           Z
 ---------------------------------------------------------------------
      1          6           0        0.697698    0.211371   -0.380486
      2          6           0        1.738618   -0.341925    0.321368
      3          6           0        2.984653    0.321732    0.105867
      4          6           0        2.860962    1.368198   -0.757832
      5         16           0        1.255295    1.561335   -1.318395
      6          1           0        3.921183    0.042827    0.567211
      7          1           0        3.639121    2.038379   -1.090474
      8          6           0       -0.697608   -0.209160   -0.381850
      9          6           0       -1.739325    0.342076    0.320434
     10         16           0       -1.253139   -1.559567   -1.320353
     11          6           0       -2.984478   -0.322968    0.104113
     12          6           0       -2.859189   -1.368831   -0.760084
     13          1           0       -3.921508   -0.045476    0.565295
     14          1           0       -3.636451   -2.039642   -1.093553
     15          8           0        1.528153   -1.408528    1.124761
     16          8           0       -1.530337    1.408120    1.124947
     17          6           0       -2.646543    1.923110    1.817354
     18          1           0       -3.075615    1.176546    2.495440
     19          1           0       -2.278737    2.765960    2.400232
     20          1           0       -3.419937    2.274806    1.124842
     21          6           0        2.643577   -1.925604    1.816872
     22          1           0        3.073395   -1.180285    2.495853
     23          1           0        2.274618   -2.768632    2.398765
     24          1           0        3.416707   -2.277492    1.124161
 ---------------------------------------------------------------------

 The electronic state is 1-A.
 Alpha  occ. eigenvalues --  -89.03917 -89.03917 -19.27785 -19.27785 -10.34623
 Alpha  occ. eigenvalues --  -10.34623 -10.33688 -10.33688 -10.31407 -10.31407
 Alpha  occ. eigenvalues --  -10.30951 -10.30916 -10.29028 -10.29027  -8.07983
 Alpha  occ. eigenvalues --   -8.07983  -6.02808  -6.02808  -6.02432  -6.02432
 Alpha  occ. eigenvalues --   -6.02090  -6.02090  -1.17625  -1.17519  -0.99334
 Alpha  occ. eigenvalues --   -0.97608  -0.86978  -0.84784  -0.84139  -0.81711
 Alpha  occ. eigenvalues --   -0.78713  -0.76897  -0.68933  -0.66329  -0.64994
 Alpha  occ. eigenvalues --   -0.63958  -0.63167  -0.57516  -0.56294  -0.56193
 Alpha  occ. eigenvalues --   -0.55103  -0.54166  -0.52703  -0.52634  -0.49484
 Alpha  occ. eigenvalues --   -0.49444  -0.48206  -0.46591  -0.46248  -0.42753
 Alpha  occ. eigenvalues --   -0.42572  -0.42044  -0.41857  -0.41347  -0.40869
 Alpha  occ. eigenvalues --   -0.32366  -0.31743  -0.29219  -0.28165
 Alpha virt. eigenvalues --    0.04205   0.05290   0.06063   0.06346   0.07237
 Alpha virt. eigenvalues --    0.07346   0.07867   0.08807   0.08821   0.08965
 Alpha virt. eigenvalues --    0.09150   0.10641   0.10811   0.11848   0.11905

 Mulliken charges:
               1
     1  C    1.320137
     2  C   -1.347821
     3  C    0.153102
     4  C   -0.321605
     5  S   -0.178164
     6  H    0.153948
     7  H    0.185227
     8  C    1.260135
     9  C   -1.361380
    10  S   -0.178272
    11  C    0.153569
    12  C   -0.323546
    13  H    0.153902
    14  H    0.185225
    15  O   -0.115945
    16  O   -0.116056
    17  C   -0.302616
    18  H    0.159520
    19  H    0.174164
    20  H    0.157756
    21  C   -0.302759
    22  H    0.159521
    23  H    0.174175
    24  H    0.157784
 Sum of Mulliken charges =  -0.00000

 Dipole moment (field-independent basis, Debye):
    X=             -0.0006    Y=             -0.0044    Z=              1.8357  Tot=              1.8357
 Quadrupole moment (field-independent basis, Debye-Ang):
   XX=            -74.5669   YY=            -92.4450   ZZ=            -94.3952
   XY=             -2.6192   XZ=             -0.0024   YZ=             -0.0021

 Normal termination of Gaussian 16 at Thu Feb  6 19:08:09 2020.
