 Gaussian 16, Revision A.03,
 Gaussian 16:  ES64L-G16RevA.03 25-Dec-2016

 --------------------------------------------------------
 # opt=modredundant wb97xd/6-311+g(d,p) geom=connectivity
 --------------------------------------------------------

 -------------------
 Title Card Required
 -------------------
 Symbolic Z-matrix:
 Charge =  0 Multiplicity = 1

 SCF Done:  E(RwB97XD) =  -1333.82020883     A.U. after   18 cycles
 SCF Done:  E(RwB97XD) =  -1333.82189674     A.U. after   16 cycles
 SCF Done:  E(RwB97XD) =  -1333.82326754     A.U. after   14 cycles
 SCF Done:  E(RwB97XD) =  -1333.82347855     A.U. after   14 cycles
 SCF Done:  E(RwB97XD) =  -1333.82358850     A.U. after   13 cycles
 SCF Done:  E(RwB97XD) =  -1333.82366075     A.U. after   14 cycles
 SCF Done:  E(RwB97XD) =  -1333.82366929     A.U. after   13 cycles
 SCF Done:  E(RwB97XD) =  -1333.82368163     A.U. after   13 cycles
 SCF Done:  E(RwB97XD) =  -1333.82369793     A.U. after   14 cycles
 SCF Done:  E(RwB97XD) =  -1333.82371650     A.U. after   13 cycles
 SCF Done:  E(RwB97XD) =  -1333.82372415     A.U. after   12 cycles
 SCF Done:  E(RwB97XD) =  -1333.82372504     A.U. after   13 cycles
 SCF Done:  E(RwB97XD) =  -1333.82372645     A.U. after   13 cycles
 SCF Done:  E(RwB97XD) =  -1333.82372798     A.U. after   13 cycles
 SCF Done:  E(RwB97XD) =  -1333.82372879     A.U. after   13 cycles
 SCF Done:  E(RwB97XD) =  -1333.82372901     A.U. after   12 cycles
 SCF Done:  E(RwB97XD) =  -1333.82372912     A.U. after   11 cycles
 SCF Done:  E(RwB97XD) =  -1333.82372915     A.U. after   10 cycles
 SCF Done:  E(RwB97XD) =  -1333.82372918     A.U. after    9 cycles
 SCF Done:  E(RwB97XD) =  -1333.82372919     A.U. after    9 cycles
 Optimization completed on the basis of negligible forces.
    -- Stationary point found.

                         Standard orientation:
 ---------------------------------------------------------------------
 Center     Atomic      Atomic             Coordinates (Angstroms)
 Number     Number       Type             X           Y           Z
 ---------------------------------------------------------------------
      1          6           0       -0.733945   -0.515378    0.139631
      2          6           0       -1.564654    0.511773   -0.241568
      3          6           0       -2.948804    0.222223   -0.041897
      4          6           0       -3.145998   -1.029828    0.454394
      5         16           0       -1.670841   -1.863991    0.707411
      6          1           0       -3.758529    0.900824   -0.269141
      7          1           0       -4.086401   -1.505187    0.687585
      8          6           0        0.712342   -0.577259    0.024018
      9          6           0        1.622714    0.404072    0.333537
     10         16           0        1.517961   -1.927285   -0.719256
     11          6           0        2.964209    0.065359   -0.020761
     12          6           0        3.049751   -1.168498   -0.587989
     13          1           0        3.823123    0.698067    0.152528
     14          1           0        3.939146   -1.678810   -0.924757
     15          8           0       -1.061857    1.635496   -0.796595
     16          8           0        1.234193    1.526501    0.976219
     17          6           0        2.124174    2.619971    0.953666
     18          1           0        2.409680    2.877838   -0.072325
     19          1           0        1.589666    3.456988    1.400660
     20          1           0        3.025920    2.419152    1.544114
     21          6           0       -1.966128    2.682508   -1.067776
     22          1           0       -2.475866    3.015750   -0.156582
     23          1           0       -1.370111    3.502700   -1.465176
     24          1           0       -2.711206    2.387466   -1.815905
 ---------------------------------------------------------------------

 The electronic state is 1-A.
 Alpha  occ. eigenvalues --  -89.04128 -89.04058 -19.27742 -19.27420 -10.34651
 Alpha  occ. eigenvalues --  -10.34488 -10.33793 -10.33562 -10.31467 -10.31409
 Alpha  occ. eigenvalues --  -10.31326 -10.31266 -10.29156 -10.29056  -8.08204
 Alpha  occ. eigenvalues --   -8.08131  -6.03034  -6.02964  -6.02657  -6.02586
 Alpha  occ. eigenvalues --   -6.02302  -6.02225  -1.17736  -1.17223  -0.99512
 Alpha  occ. eigenvalues --   -0.97656  -0.87172  -0.84679  -0.84373  -0.81687
 Alpha  occ. eigenvalues --   -0.78809  -0.76918  -0.69250  -0.66132  -0.65231
 Alpha  occ. eigenvalues --   -0.63919  -0.63286  -0.57417  -0.56397  -0.56109
 Alpha  occ. eigenvalues --   -0.55332  -0.54086  -0.53092  -0.52225  -0.49850
 Alpha  occ. eigenvalues --   -0.49181  -0.48338  -0.46477  -0.46433  -0.43412
 Alpha  occ. eigenvalues --   -0.42514  -0.42129  -0.42072  -0.41337  -0.39674
 Alpha  occ. eigenvalues --   -0.34043  -0.31741  -0.30097  -0.26518
 Alpha virt. eigenvalues --    0.03078   0.05746   0.06165   0.06377   0.07071
 Alpha virt. eigenvalues --    0.07613   0.07857   0.08575   0.08907   0.09463
 Alpha virt. eigenvalues --    0.09583   0.10625   0.10724   0.11671   0.11898

 Mulliken charges:
               1
     1  C    1.706304
     2  C   -0.181154
     3  C   -0.152186
     4  C   -0.156550
     5  S   -0.386332
     6  H    0.153828
     7  H    0.185827
     8  C   -0.165805
     9  C   -0.885582
    10  S   -0.324601
    11  C    0.029188
    12  C   -0.308147
    13  H    0.150048
    14  H    0.184792
    15  O   -0.075004
    16  O   -0.067533
    17  C   -0.354517
    18  H    0.163417
    19  H    0.170459
    20  H    0.147791
    21  C   -0.323890
    22  H    0.166017
    23  H    0.171417
    24  H    0.152212
 Sum of Mulliken charges =  -0.00000

 Dipole moment (field-independent basis, Debye):
    X=             -0.0552    Y=              2.7548    Z=             -0.4815  Tot=              2.7971
 Quadrupole moment (field-independent basis, Debye-Ang):
   XX=            -77.4411   YY=            -86.5246   ZZ=           -100.0916
   XY=             -0.1046   XZ=              0.8596   YZ=             -0.4677

 Normal termination of Gaussian 16 at Thu Feb  6 18:49:52 2020.
