 Gaussian 16, Revision A.03,
 Gaussian 16:  ES64L-G16RevA.03 25-Dec-2016

 --------------------------------------------------------
 # opt=modredundant wb97xd/6-311+g(d,p) geom=connectivity
 --------------------------------------------------------

 -------------------
 Title Card Required
 -------------------
 Symbolic Z-matrix:
 Charge =  0 Multiplicity = 1

 SCF Done:  E(RwB97XD) =  -1333.79469716     A.U. after   16 cycles
 SCF Done:  E(RwB97XD) =  -1333.81102288     A.U. after   16 cycles
 SCF Done:  E(RwB97XD) =  -1333.81333364     A.U. after   14 cycles
 SCF Done:  E(RwB97XD) =  -1333.81529731     A.U. after   14 cycles
 SCF Done:  E(RwB97XD) =  -1333.81626015     A.U. after   14 cycles
 SCF Done:  E(RwB97XD) =  -1333.81679227     A.U. after   16 cycles
 SCF Done:  E(RwB97XD) =  -1333.81691334     A.U. after   15 cycles
 SCF Done:  E(RwB97XD) =  -1333.81701363     A.U. after   16 cycles
 SCF Done:  E(RwB97XD) =  -1333.81703537     A.U. after   13 cycles
 SCF Done:  E(RwB97XD) =  -1333.81709749     A.U. after   15 cycles
 SCF Done:  E(RwB97XD) =  -1333.81819238     A.U. after   16 cycles
 SCF Done:  E(RwB97XD) =  -1333.81845402     A.U. after   15 cycles
 SCF Done:  E(RwB97XD) =  -1333.81846182     A.U. after   13 cycles
 SCF Done:  E(RwB97XD) =  -1333.81847059     A.U. after   14 cycles
 SCF Done:  E(RwB97XD) =  -1333.81848280     A.U. after   14 cycles
 SCF Done:  E(RwB97XD) =  -1333.81849648     A.U. after   14 cycles
 SCF Done:  E(RwB97XD) =  -1333.81850278     A.U. after   13 cycles
 SCF Done:  E(RwB97XD) =  -1333.81850419     A.U. after   14 cycles
 SCF Done:  E(RwB97XD) =  -1333.81850431     A.U. after   12 cycles
 SCF Done:  E(RwB97XD) =  -1333.81850453     A.U. after   11 cycles
 Optimization completed.
    -- Stationary point found.

                         Standard orientation:
 ---------------------------------------------------------------------
 Center     Atomic      Atomic             Coordinates (Angstroms)
 Number     Number       Type             X           Y           Z
 ---------------------------------------------------------------------
      1          6           0       -0.649556   -0.567169    0.191980
      2          6           0       -1.600493    0.401038   -0.052559
      3          6           0       -2.934458   -0.108107   -0.100489
      4          6           0       -2.979093   -1.458212    0.044946
      5         16           0       -1.419409   -2.130220    0.259284
      6          1           0       -3.815020    0.499010   -0.253711
      7          1           0       -3.849530   -2.095996    0.045899
      8          6           0        0.804723   -0.478119    0.172095
      9          6           0        1.638787    0.607774    0.303149
     10         16           0        1.739310   -1.868491   -0.325268
     11          6           0        3.010897    0.316233    0.030507
     12          6           0        3.210260   -0.979453   -0.314126
     13          1           0        3.804249    1.044920    0.128632
     14          1           0        4.142353   -1.476235   -0.535952
     15          8           0       -1.259256    1.681731   -0.307666
     16          8           0        1.233818    1.802317    0.805336
     17          6           0        1.449812    2.917461   -0.038833
     18          1           0        0.881238    2.808377   -0.967487
     19          1           0        1.096153    3.791855    0.507307
     20          1           0        2.512983    3.049009   -0.270983
     21          6           0       -2.292503    2.641765   -0.330441
     22          1           0       -2.856867    2.641381    0.608320
     23          1           0       -1.804001    3.607554   -0.454185
     24          1           0       -2.976722    2.477848   -1.170839
 ---------------------------------------------------------------------

 The electronic state is 1-A.
 Alpha  occ. eigenvalues --  -89.04522 -89.04123 -19.28282 -19.26358 -10.35278
 Alpha  occ. eigenvalues --  -10.34292 -10.34186 -10.32728 -10.32275 -10.32198
 Alpha  occ. eigenvalues --  -10.31913 -10.31408 -10.29547 -10.28897  -8.08614
 Alpha  occ. eigenvalues --   -8.08215  -6.03452  -6.03069  -6.03058  -6.02698
 Alpha  occ. eigenvalues --   -6.02673  -6.02291  -1.18261  -1.16216  -0.99886
 Alpha  occ. eigenvalues --   -0.97808  -0.87350  -0.85300  -0.83984  -0.81668
 Alpha  occ. eigenvalues --   -0.78820  -0.77033  -0.69546  -0.66904  -0.65109
 Alpha  occ. eigenvalues --   -0.64375  -0.62662  -0.57400  -0.56906  -0.56196
 Alpha  occ. eigenvalues --   -0.55055  -0.54169  -0.53494  -0.51785  -0.50233
 Alpha  occ. eigenvalues --   -0.49260  -0.48836  -0.46778  -0.46242  -0.44275
 Alpha  occ. eigenvalues --   -0.42921  -0.42673  -0.41685  -0.41218  -0.36750
 Alpha  occ. eigenvalues --   -0.35574  -0.31620  -0.31201  -0.26642
 Alpha virt. eigenvalues --    0.02048   0.05607   0.06099   0.06447   0.07201
 Alpha virt. eigenvalues --    0.07740   0.07863   0.08515   0.08940   0.09660
 Alpha virt. eigenvalues --    0.09901   0.10622   0.10758   0.10874   0.11338

 Mulliken charges:
               1
     1  C    2.022418
     2  C   -0.901068
     3  C   -0.040443
     4  C   -0.311280
     5  S   -0.456476
     6  H    0.155626
     7  H    0.187931
     8  C   -0.117811
     9  C   -0.322800
    10  S   -0.414874
    11  C   -0.036675
    12  C   -0.177025
    13  H    0.150729
    14  H    0.184527
    15  O   -0.129807
    16  O   -0.053814
    17  C   -0.359641
    18  H    0.162632
    19  H    0.159055
    20  H    0.140473
    21  C   -0.325734
    22  H    0.166995
    23  H    0.167485
    24  H    0.149576
 Sum of Mulliken charges =  -0.00000

 Dipole moment (field-independent basis, Debye):
    X=             -1.2216    Y=              2.2500    Z=             -1.2465  Tot=              2.8475
 Quadrupole moment (field-independent basis, Debye-Ang):
   XX=            -77.9902   YY=            -86.1244   ZZ=           -102.5168
   XY=             -1.5942   XZ=             -0.9858   YZ=             -1.6815

 Normal termination of Gaussian 16 at Thu Feb  6 20:46:05 2020.
