 Gaussian 16, Revision A.03,
 Gaussian 16:  ES64L-G16RevA.03 25-Dec-2016

 --------------------------------------------------------
 # opt=modredundant wb97xd/6-311+g(d,p) geom=connectivity
 --------------------------------------------------------

 -------------------
 Title Card Required
 -------------------
 Symbolic Z-matrix:
 Charge =  0 Multiplicity = 1

 SCF Done:  E(RwB97XD) =  -1333.82237961     A.U. after   18 cycles
 SCF Done:  E(RwB97XD) =  -1333.82413296     A.U. after   15 cycles
 SCF Done:  E(RwB97XD) =  -1333.82443447     A.U. after   14 cycles
 SCF Done:  E(RwB97XD) =  -1333.82446515     A.U. after   13 cycles
 SCF Done:  E(RwB97XD) =  -1333.82448615     A.U. after   13 cycles
 SCF Done:  E(RwB97XD) =  -1333.82449372     A.U. after   11 cycles
 SCF Done:  E(RwB97XD) =  -1333.82450372     A.U. after   13 cycles
 SCF Done:  E(RwB97XD) =  -1333.82450843     A.U. after   11 cycles
 SCF Done:  E(RwB97XD) =  -1333.82451412     A.U. after   12 cycles
 SCF Done:  E(RwB97XD) =  -1333.82451599     A.U. after   12 cycles
 SCF Done:  E(RwB97XD) =  -1333.82451622     A.U. after   11 cycles
 Optimization completed.
    -- Stationary point found.

                         Standard orientation:
 ---------------------------------------------------------------------
 Center     Atomic      Atomic             Coordinates (Angstroms)
 Number     Number       Type             X           Y           Z
 ---------------------------------------------------------------------
      1          6           0       -0.730354   -0.521825   -0.108265
      2          6           0       -1.586578    0.472342    0.298396
      3          6           0       -2.956470    0.191516    0.008809
      4          6           0       -3.115450   -1.018922   -0.594249
      5         16           0       -1.621682   -1.822093   -0.837053
      6          1           0       -3.783096    0.845740    0.246579
      7          1           0       -4.038896   -1.481215   -0.907899
      8          6           0        0.714676   -0.555002    0.037490
      9          6           0        1.611484    0.420578   -0.323910
     10         16           0        1.537592   -1.862229    0.832703
     11          6           0        2.959295    0.109477    0.030765
     12          6           0        3.060282   -1.098013    0.651879
     13          1           0        3.811861    0.740916   -0.174775
     14          1           0        3.957412   -1.582228    1.006284
     15          8           0       -1.115170    1.562453    0.940786
     16          8           0        1.195529    1.521619   -0.985789
     17          6           0        2.148502    2.534871   -1.215006
     18          1           0        2.955322    2.187706   -1.871132
     19          1           0        1.615542    3.346855   -1.707308
     20          1           0        2.575335    2.901063   -0.274298
     21          6           0       -2.038643    2.585570    1.237592
     22          1           0       -2.812741    2.239584    1.932579
     23          1           0       -1.466936    3.382338    1.710891
     24          1           0       -2.511700    2.972273    0.327706
 ---------------------------------------------------------------------

 The electronic state is 1-A.
 Alpha  occ. eigenvalues --  -89.04066 -89.04049 -19.27658 -19.27606 -10.34569
 Alpha  occ. eigenvalues --  -10.34545 -10.33688 -10.33648 -10.31421 -10.31406
 Alpha  occ. eigenvalues --  -10.31157 -10.31114 -10.29094 -10.29071  -8.08138
 Alpha  occ. eigenvalues --   -8.08119  -6.02966  -6.02948  -6.02591  -6.02572
 Alpha  occ. eigenvalues --   -6.02239  -6.02219  -1.17693  -1.17327  -0.99452
 Alpha  occ. eigenvalues --   -0.97637  -0.87136  -0.84563  -0.84421  -0.81698
 Alpha  occ. eigenvalues --   -0.78781  -0.76892  -0.69181  -0.65945  -0.65325
 Alpha  occ. eigenvalues --   -0.63918  -0.63293  -0.57431  -0.56334  -0.56151
 Alpha  occ. eigenvalues --   -0.55260  -0.54068  -0.52992  -0.52274  -0.49705
 Alpha  occ. eigenvalues --   -0.49266  -0.48259  -0.46496  -0.46431  -0.43222
 Alpha  occ. eigenvalues --   -0.42313  -0.42131  -0.42008  -0.41346  -0.40243
 Alpha  occ. eigenvalues --   -0.33608  -0.31785  -0.29900  -0.26743
 Alpha virt. eigenvalues --    0.03348   0.05741   0.06080   0.06393   0.07093
 Alpha virt. eigenvalues --    0.07553   0.07851   0.08618   0.08890   0.09388
 Alpha virt. eigenvalues --    0.09433   0.10641   0.10673   0.11886   0.11982

 Mulliken charges:
               1
     1  C    1.433926
     2  C   -0.597478
     3  C   -0.133482
     4  C   -0.178582
     5  S   -0.300218
     6  H    0.153529
     7  H    0.185569
     8  C    0.382485
     9  C   -0.888565
    10  S   -0.259334
    11  C   -0.088972
    12  C   -0.230713
    13  H    0.152856
    14  H    0.185038
    15  O   -0.071470
    16  O   -0.078221
    17  C   -0.322062
    18  H    0.151728
    19  H    0.171807
    20  H    0.163682
    21  C   -0.320421
    22  H    0.152219
    23  H    0.172062
    24  H    0.164617
 Sum of Mulliken charges =  -0.00000

 Dipole moment (field-independent basis, Debye):
    X=              0.0247    Y=              2.6800    Z=              0.1455  Tot=              2.6841
 Quadrupole moment (field-independent basis, Debye-Ang):
   XX=            -77.1925   YY=            -87.5077   ZZ=            -98.8109
   XY=             -0.0004   XZ=             -1.4051   YZ=              0.0948

 Normal termination of Gaussian 16 at Thu Feb  6 23:09:02 2020.
