 Gaussian 16, Revision A.03,
 Gaussian 16:  ES64L-G16RevA.03 25-Dec-2016

 --------------------------------------------------------
 # opt=modredundant wb97xd/6-311+g(d,p) geom=connectivity
 --------------------------------------------------------

 -------------------
 Title Card Required
 -------------------
 Symbolic Z-matrix:
 Charge =  0 Multiplicity = 1

 SCF Done:  E(RwB97XD) =  -1333.82284129     A.U. after   16 cycles
 SCF Done:  E(RwB97XD) =  -1333.82441054     A.U. after   14 cycles
 SCF Done:  E(RwB97XD) =  -1333.82456916     A.U. after   13 cycles
 SCF Done:  E(RwB97XD) =  -1333.82458325     A.U. after   13 cycles
 SCF Done:  E(RwB97XD) =  -1333.82460293     A.U. after   13 cycles
 SCF Done:  E(RwB97XD) =  -1333.82460355     A.U. after   11 cycles
 Optimization completed.
    -- Stationary point found.

                         Standard orientation:
 ---------------------------------------------------------------------
 Center     Atomic      Atomic             Coordinates (Angstroms)
 Number     Number       Type             X           Y           Z
 ---------------------------------------------------------------------
      1          6           0        0.697687   -0.211408   -0.380435
      2          6           0        1.738634    0.341829    0.321424
      3          6           0        2.984636   -0.321890    0.105922
      4          6           0        2.860892   -1.368345   -0.757781
      5         16           0        1.255215   -1.561405   -1.318341
      6          1           0        3.921178   -0.043036    0.567272
      7          1           0        3.639016   -2.038566   -1.090425
      8          6           0       -0.697596    0.209193   -0.381801
      9          6           0       -1.739344   -0.341985    0.320482
     10         16           0       -1.253053    1.559636   -1.320299
     11          6           0       -2.984462    0.323124    0.104159
     12          6           0       -2.859115    1.368980   -0.760038
     13          1           0       -3.921506    0.045682    0.565341
     14          1           0       -3.636340    2.039833   -1.093508
     15          8           0        1.528213    1.408411    1.124858
     16          8           0       -1.530405   -1.408014    1.125028
     17          6           0       -2.646731   -1.923234    1.817072
     18          1           0       -3.419939   -2.274840    1.124307
     19          1           0       -2.278994   -2.766177    2.399861
     20          1           0       -3.076014   -1.176846    2.495218
     21          6           0        2.643762    1.925744    1.816577
     22          1           0        3.416688    2.277541    1.123593
     23          1           0        2.274871    2.768867    2.398374
     24          1           0        3.073815    1.180617    2.495622
 ---------------------------------------------------------------------

 The electronic state is 1-A.
 Alpha  occ. eigenvalues --  -89.03917 -89.03917 -19.27785 -19.27784 -10.34623
 Alpha  occ. eigenvalues --  -10.34623 -10.33688 -10.33688 -10.31407 -10.31407
 Alpha  occ. eigenvalues --  -10.30951 -10.30916 -10.29028 -10.29027  -8.07983
 Alpha  occ. eigenvalues --   -8.07983  -6.02808  -6.02808  -6.02432  -6.02432
 Alpha  occ. eigenvalues --   -6.02090  -6.02090  -1.17625  -1.17519  -0.99334
 Alpha  occ. eigenvalues --   -0.97608  -0.86978  -0.84784  -0.84139  -0.81711
 Alpha  occ. eigenvalues --   -0.78713  -0.76897  -0.68933  -0.66329  -0.64994
 Alpha  occ. eigenvalues --   -0.63958  -0.63167  -0.57516  -0.56294  -0.56193
 Alpha  occ. eigenvalues --   -0.55103  -0.54166  -0.52703  -0.52634  -0.49484
 Alpha  occ. eigenvalues --   -0.49444  -0.48206  -0.46590  -0.46248  -0.42753
 Alpha  occ. eigenvalues --   -0.42572  -0.42044  -0.41856  -0.41347  -0.40868
 Alpha  occ. eigenvalues --   -0.32366  -0.31743  -0.29219  -0.28165
 Alpha virt. eigenvalues --    0.04205   0.05290   0.06063   0.06346   0.07237
 Alpha virt. eigenvalues --    0.07347   0.07867   0.08807   0.08821   0.08965
 Alpha virt. eigenvalues --    0.09150   0.10641   0.10811   0.11848   0.11905

 Mulliken charges:
               1
     1  C    1.320457
     2  C   -1.348217
     3  C    0.153192
     4  C   -0.321597
     5  S   -0.178128
     6  H    0.153949
     7  H    0.185227
     8  C    1.260366
     9  C   -1.361789
    10  S   -0.178234
    11  C    0.153660
    12  C   -0.323542
    13  H    0.153902
    14  H    0.185225
    15  O   -0.115962
    16  O   -0.116072
    17  C   -0.302618
    18  H    0.157764
    19  H    0.174167
    20  H    0.159519
    21  C   -0.302761
    22  H    0.157793
    23  H    0.174178
    24  H    0.159520
 Sum of Mulliken charges =  -0.00000

 Dipole moment (field-independent basis, Debye):
    X=             -0.0006    Y=              0.0044    Z=              1.8349  Tot=              1.8349
 Quadrupole moment (field-independent basis, Debye-Ang):
   XX=            -74.5656   YY=            -92.4422   ZZ=            -94.3983
   XY=              2.6203   XZ=             -0.0024   YZ=              0.0020

 Normal termination of Gaussian 16 at Thu Feb  6 22:00:05 2020.
