 Gaussian 16, Revision A.03,
 Gaussian 16:  ES64L-G16RevA.03 25-Dec-2016

 --------------------------------------------------------
 # opt=modredundant wb97xd/6-311+g(d,p) geom=connectivity
 --------------------------------------------------------

 -------------------
 Title Card Required
 -------------------
 Symbolic Z-matrix:
 Charge =  0 Multiplicity = 1

 SCF Done:  E(RwB97XD) =  -1333.82310858     A.U. after   17 cycles
 SCF Done:  E(RwB97XD) =  -1333.82457618     A.U. after   14 cycles
 SCF Done:  E(RwB97XD) =  -1333.82471281     A.U. after   14 cycles
 SCF Done:  E(RwB97XD) =  -1333.82475194     A.U. after   14 cycles
 SCF Done:  E(RwB97XD) =  -1333.82477294     A.U. after   13 cycles
 SCF Done:  E(RwB97XD) =  -1333.82477325     A.U. after   10 cycles
 SCF Done:  E(RwB97XD) =  -1333.82477331     A.U. after   10 cycles
 Optimization completed.
    -- Stationary point found.

                         Standard orientation:
 ---------------------------------------------------------------------
 Center     Atomic      Atomic             Coordinates (Angstroms)
 Number     Number       Type             X           Y           Z
 ---------------------------------------------------------------------
      1          6           0        0.667317    0.293864   -0.268503
      2          6           0        1.817783   -0.243043    0.255530
      3          6           0        2.967117    0.581727    0.066655
      4          6           0        2.665455    1.729547   -0.602530
      5         16           0        1.006718    1.823642   -1.014910
      6          1           0        3.962061    0.343032    0.414138
      7          1           0        3.338439    2.531593   -0.865174
      8          6           0       -0.668228   -0.284875   -0.275984
      9          6           0       -1.821046    0.244142    0.250866
     10         16           0       -0.998126   -1.818446   -1.018617
     11          6           0       -2.965978   -0.586449    0.060940
     12          6           0       -2.657732   -1.732639   -0.608064
     13          1           0       -3.962464   -0.352908    0.407513
     14          1           0       -3.326576   -2.537484   -0.872708
     15          8           0        1.787609   -1.441237    0.883300
     16          8           0       -1.796744    1.440944    0.881470
     17          6           0       -3.016838    1.922828    1.400591
     18          1           0       -3.422781    1.245892    2.161015
     19          1           0       -2.791627    2.883554    1.860674
     20          1           0       -3.759370    2.068333    0.607613
     21          6           0        3.005504   -1.930904    1.400274
     22          1           0        3.415393   -1.258305    2.162430
     23          1           0        2.775601   -2.891790    1.857695
     24          1           0        3.746817   -2.077917    0.606435
 ---------------------------------------------------------------------

 The electronic state is 1-A.
 Alpha  occ. eigenvalues --  -89.03878 -89.03876 -19.27827 -19.27826 -10.34602
 Alpha  occ. eigenvalues --  -10.34600 -10.33718 -10.33716 -10.31335 -10.31333
 Alpha  occ. eigenvalues --  -10.31091 -10.31055 -10.29003 -10.29001  -8.07941
 Alpha  occ. eigenvalues --   -8.07940  -6.02770  -6.02769  -6.02392  -6.02390
 Alpha  occ. eigenvalues --   -6.02044  -6.02042  -1.17643  -1.17559  -0.99352
 Alpha  occ. eigenvalues --   -0.97598  -0.87007  -0.84965  -0.84011  -0.81675
 Alpha  occ. eigenvalues --   -0.78749  -0.76910  -0.68894  -0.66776  -0.64636
 Alpha  occ. eigenvalues --   -0.63988  -0.63099  -0.57460  -0.56350  -0.56200
 Alpha  occ. eigenvalues --   -0.55223  -0.54195  -0.52742  -0.52603  -0.49535
 Alpha  occ. eigenvalues --   -0.49420  -0.48304  -0.46640  -0.46056  -0.43035
 Alpha  occ. eigenvalues --   -0.42402  -0.41990  -0.41955  -0.41216  -0.40837
 Alpha  occ. eigenvalues --   -0.33199  -0.31529  -0.29852  -0.27059
 Alpha virt. eigenvalues --    0.03500   0.06074   0.06203   0.06363   0.07149
 Alpha virt. eigenvalues --    0.07480   0.08013   0.08787   0.08966   0.09088
 Alpha virt. eigenvalues --    0.09137   0.10699   0.11134   0.11523   0.11953

 Mulliken charges:
               1
     1  C    1.542391
     2  C   -1.089658
     3  C   -0.070673
     4  C   -0.200699
     5  S   -0.267671
     6  H    0.153928
     7  H    0.185132
     8  C    1.088175
     9  C   -1.226594
    10  S   -0.273555
    11  C   -0.060914
    12  C   -0.219477
    13  H    0.153568
    14  H    0.185032
    15  O   -0.120032
    16  O   -0.120945
    17  C   -0.319512
    18  H    0.157414
    19  H    0.174049
    20  H    0.157939
    21  C   -0.317937
    22  H    0.157585
    23  H    0.174175
    24  H    0.158279
 Sum of Mulliken charges =  -0.00000

 Dipole moment (field-independent basis, Debye):
    X=             -0.0012    Y=             -0.0187    Z=              1.3479  Tot=              1.3481
 Quadrupole moment (field-independent basis, Debye-Ang):
   XX=            -72.8852   YY=            -90.6277   ZZ=            -97.2315
   XY=             -2.5616   XZ=             -0.0113   YZ=             -0.0058

 Normal termination of Gaussian 16 at Thu Feb  6 19:30:25 2020.
