 Gaussian 16, Revision A.03,
 Gaussian 16:  ES64L-G16RevA.03 25-Dec-2016

 --------------------------------------------------------
 # opt=modredundant wb97xd/6-311+g(d,p) geom=connectivity
 --------------------------------------------------------

 -------------------
 Title Card Required
 -------------------
 Symbolic Z-matrix:
 Charge =  0 Multiplicity = 1

 SCF Done:  E(RwB97XD) =  -1333.82524734     A.U. after   16 cycles
 SCF Done:  E(RwB97XD) =  -1333.82633218     A.U. after   15 cycles
 SCF Done:  E(RwB97XD) =  -1333.82643521     A.U. after   13 cycles
 SCF Done:  E(RwB97XD) =  -1333.82644307     A.U. after   14 cycles
 SCF Done:  E(RwB97XD) =  -1333.82645334     A.U. after   13 cycles
 SCF Done:  E(RwB97XD) =  -1333.82645443     A.U. after   10 cycles
 SCF Done:  E(RwB97XD) =  -1333.82645462     A.U. after   11 cycles
 SCF Done:  E(RwB97XD) =  -1333.82645483     A.U. after   10 cycles
 SCF Done:  E(RwB97XD) =  -1333.82645516     A.U. after   11 cycles
 SCF Done:  E(RwB97XD) =  -1333.82645556     A.U. after   11 cycles
 SCF Done:  E(RwB97XD) =  -1333.82645580     A.U. after   10 cycles
 SCF Done:  E(RwB97XD) =  -1333.82645592     A.U. after   11 cycles
 Optimization completed.
    -- Stationary point found.

                         Standard orientation:
 ---------------------------------------------------------------------
 Center     Atomic      Atomic             Coordinates (Angstroms)
 Number     Number       Type             X           Y           Z
 ---------------------------------------------------------------------
      1          6           0       -0.602502    0.404547   -0.041616
      2          6           0       -1.900998   -0.033769    0.094013
      3          6           0       -2.872487    1.003221    0.008724
      4          6           0       -2.296539    2.218334   -0.206004
      5         16           0       -0.588389    2.126272   -0.297993
      6          1           0       -3.938836    0.858280    0.105732
      7          1           0       -2.790971    3.173859   -0.292956
      8          6           0        0.605147   -0.398364   -0.070118
      9          6           0        1.903139    0.033889    0.088193
     10         16           0        0.584728   -2.123585   -0.298604
     11          6           0        2.871745   -1.006134    0.009710
     12          6           0        2.292338   -2.220377   -0.201042
     13          1           0        3.938257   -0.864135    0.109318
     14          1           0        2.784262   -3.177045   -0.289475
     15          8           0       -2.152987   -1.352937    0.275840
     16          8           0        2.156262    1.350910    0.283358
     17          6           0        3.506040    1.745931    0.395800
     18          1           0        4.068465    1.502619   -0.512619
     19          1           0        3.495278    2.825781    0.534012
     20          1           0        3.987170    1.276466    1.261185
     21          6           0       -3.501643   -1.748720    0.398660
     22          1           0       -4.072225   -1.502758   -0.503942
     23          1           0       -3.489336   -2.829039    0.533012
     24          1           0       -3.975122   -1.282136    1.269780
 ---------------------------------------------------------------------

 The electronic state is 1-A.
 Alpha  occ. eigenvalues --  -89.03814 -89.03803 -19.28118 -19.28107 -10.34447
 Alpha  occ. eigenvalues --  -10.34431 -10.33902 -10.33891 -10.31492 -10.31455
 Alpha  occ. eigenvalues --  -10.30974 -10.30971 -10.28906 -10.28904  -8.07847
 Alpha  occ. eigenvalues --   -8.07836  -6.02687  -6.02677  -6.02294  -6.02284
 Alpha  occ. eigenvalues --   -6.01939  -6.01928  -1.17861  -1.17782  -0.99303
 Alpha  occ. eigenvalues --   -0.97513  -0.87137  -0.85300  -0.83843  -0.81533
 Alpha  occ. eigenvalues --   -0.78920  -0.76906  -0.68827  -0.67433  -0.64243
 Alpha  occ. eigenvalues --   -0.64184  -0.62770  -0.57200  -0.56630  -0.56325
 Alpha  occ. eigenvalues --   -0.55829  -0.54243  -0.52802  -0.52460  -0.49575
 Alpha  occ. eigenvalues --   -0.49408  -0.48642  -0.46646  -0.45589  -0.44231
 Alpha  occ. eigenvalues --   -0.43130  -0.41698  -0.40977  -0.40691  -0.40598
 Alpha  occ. eigenvalues --   -0.35068  -0.31186  -0.30676  -0.25388
 Alpha virt. eigenvalues --    0.02773   0.05951   0.06396   0.06928   0.07624
 Alpha virt. eigenvalues --    0.07711   0.08168   0.08575   0.09385   0.09396
 Alpha virt. eigenvalues --    0.09811   0.10638   0.11565   0.11570   0.11853

 Mulliken charges:
               1
     1  C    0.715143
     2  C    0.102506
     3  C   -0.374584
     4  C   -0.157183
     5  S   -0.308057
     6  H    0.152783
     7  H    0.182726
     8  C    0.523119
     9  C   -0.444515
    10  S   -0.305394
    11  C   -0.368398
    12  C   -0.213985
    13  H    0.152613
    14  H    0.182978
    15  O   -0.110189
    16  O   -0.108256
    17  C   -0.302462
    18  H    0.158871
    19  H    0.177185
    20  H    0.152053
    21  C   -0.295986
    22  H    0.160430
    23  H    0.176975
    24  H    0.151624
 Sum of Mulliken charges =  -0.00000

 Dipole moment (field-independent basis, Debye):
    X=             -0.0041    Y=             -0.0155    Z=              0.3328  Tot=              0.3331
 Quadrupole moment (field-independent basis, Debye-Ang):
   XX=            -70.2978   YY=            -89.0001   ZZ=           -101.0137
   XY=              2.7517   XZ=             -0.0072   YZ=             -0.0660

 Normal termination of Gaussian 16 at Thu Feb  6 21:40:20 2020.
