 Gaussian 16, Revision A.03,
 Gaussian 16:  ES64L-G16RevA.03 25-Dec-2016

 --------------------------------------------------------
 # opt=modredundant wb97xd/6-311+g(d,p) geom=connectivity
 --------------------------------------------------------

 -------------------
 Title Card Required
 -------------------
 Symbolic Z-matrix:
 Charge =  0 Multiplicity = 1

 SCF Done:  E(RwB97XD) =  -1333.78966460     A.U. after   16 cycles
 SCF Done:  E(RwB97XD) =  -1333.81039276     A.U. after   15 cycles
 SCF Done:  E(RwB97XD) =  -1333.81388995     A.U. after   12 cycles
 SCF Done:  E(RwB97XD) =  -1333.81427425     A.U. after   11 cycles
 SCF Done:  E(RwB97XD) =  -1333.81430478     A.U. after   11 cycles
 SCF Done:  E(RwB97XD) =  -1333.81430716     A.U. after    9 cycles
 Optimization completed.
    -- Stationary point found.

                         Standard orientation:
 ---------------------------------------------------------------------
 Center     Atomic      Atomic             Coordinates (Angstroms)
 Number     Number       Type             X           Y           Z
 ---------------------------------------------------------------------
      1          6           0       -0.731331   -0.477399   -0.000034
      2          6           0       -1.672215    0.534686   -0.000043
      3          6           0       -3.021081    0.059130   -0.000080
      4          6           0       -3.101870   -1.295750   -0.000119
      5         16           0       -1.553143   -2.020606   -0.000054
      6          1           0       -3.891105    0.699387   -0.000105
      7          1           0       -3.989575   -1.909025   -0.000167
      8          6           0        0.731331   -0.477399    0.000008
      9          6           0        1.672215    0.534686    0.000033
     10         16           0        1.553143   -2.020606    0.000050
     11          6           0        3.021081    0.059130    0.000097
     12          6           0        3.101870   -1.295750    0.000146
     13          1           0        3.891105    0.699387    0.000133
     14          1           0        3.989575   -1.909025    0.000211
     15          8           0       -1.332043    1.839502   -0.000068
     16          8           0        1.332043    1.839502    0.000039
     17          6           0        2.372076    2.788773   -0.000314
     18          1           0        2.999245    2.701278   -0.895358
     19          1           0        1.886847    3.763765   -0.000423
     20          1           0        2.999538    2.701632    0.894560
     21          6           0       -2.372076    2.788773    0.000331
     22          1           0       -2.999215    2.701269    0.895395
     23          1           0       -1.886847    3.763765    0.000433
     24          1           0       -2.999568    2.701641   -0.894523
 ---------------------------------------------------------------------

 The electronic state is 1-A.
 Alpha  occ. eigenvalues --  -89.04049 -89.04049 -19.27280 -19.27279 -10.34807
 Alpha  occ. eigenvalues --  -10.34805 -10.33588 -10.33588 -10.32001 -10.31968
 Alpha  occ. eigenvalues --  -10.31401 -10.31400 -10.29035 -10.29034  -8.08155
 Alpha  occ. eigenvalues --   -8.08153  -6.02997  -6.02997  -6.02609  -6.02609
 Alpha  occ. eigenvalues --   -6.02231  -6.02231  -1.17648  -1.17165  -0.99612
 Alpha  occ. eigenvalues --   -0.97634  -0.87102  -0.84983  -0.84322  -0.81495
 Alpha  occ. eigenvalues --   -0.78942  -0.76991  -0.69324  -0.66723  -0.64840
 Alpha  occ. eigenvalues --   -0.63746  -0.63542  -0.57105  -0.56380  -0.55916
 Alpha  occ. eigenvalues --   -0.55883  -0.54086  -0.53146  -0.51685  -0.49849
 Alpha  occ. eigenvalues --   -0.49396  -0.48689  -0.46740  -0.45930  -0.44321
 Alpha  occ. eigenvalues --   -0.42528  -0.41471  -0.41032  -0.40686  -0.39831
 Alpha  occ. eigenvalues --   -0.35673  -0.31048  -0.30944  -0.25307
 Alpha virt. eigenvalues --    0.02053   0.05732   0.06174   0.06360   0.07600
 Alpha virt. eigenvalues --    0.07771   0.08225   0.08426   0.09434   0.09651
 Alpha virt. eigenvalues --    0.09693   0.10271   0.11128   0.11322   0.11511

 Mulliken charges:
               1
     1  C    0.748693
     2  C   -0.064303
     3  C   -0.292962
     4  C   -0.253158
     5  S   -0.557825
     6  H    0.155168
     7  H    0.184350
     8  C    0.748693
     9  C   -0.064303
    10  S   -0.557825
    11  C   -0.292962
    12  C   -0.253157
    13  H    0.155168
    14  H    0.184350
    15  O   -0.087210
    16  O   -0.087210
    17  C   -0.305137
    18  H    0.149623
    19  H    0.173159
    20  H    0.149602
    21  C   -0.305137
    22  H    0.149623
    23  H    0.173159
    24  H    0.149601
 Sum of Mulliken charges =  -0.00000

 Dipole moment (field-independent basis, Debye):
    X=              0.0000    Y=              2.4473    Z=              0.0001  Tot=              2.4473
 Quadrupole moment (field-independent basis, Debye-Ang):
   XX=            -75.2843   YY=            -85.8457   ZZ=           -101.3975
   XY=              0.0000   XZ=             -0.0008   YZ=              0.0001

 Normal termination of Gaussian 16 at Thu Feb  6 23:20:25 2020.
