 Gaussian 16, Revision A.03,
 Gaussian 16:  ES64L-G16RevA.03 25-Dec-2016

 --------------------------------------------------------
 # opt=modredundant wb97xd/6-311+g(d,p) geom=connectivity
 --------------------------------------------------------

 -------------------
 Title Card Required
 -------------------
 Symbolic Z-matrix:
 Charge =  0 Multiplicity = 1

 SCF Done:  E(RwB97XD) =  -1333.80532892     A.U. after   16 cycles
 SCF Done:  E(RwB97XD) =  -1333.81256712     A.U. after   16 cycles
 SCF Done:  E(RwB97XD) =  -1333.81329316     A.U. after   16 cycles
 SCF Done:  E(RwB97XD) =  -1333.81837425     A.U. after   15 cycles
 SCF Done:  E(RwB97XD) =  -1333.81948640     A.U. after   16 cycles
 SCF Done:  E(RwB97XD) =  -1333.81979440     A.U. after   15 cycles
 SCF Done:  E(RwB97XD) =  -1333.81988148     A.U. after   15 cycles
 SCF Done:  E(RwB97XD) =  -1333.81991730     A.U. after   14 cycles
 SCF Done:  E(RwB97XD) =  -1333.81993907     A.U. after   14 cycles
 SCF Done:  E(RwB97XD) =  -1333.81997451     A.U. after   14 cycles
 SCF Done:  E(RwB97XD) =  -1333.82106054     A.U. after   14 cycles
 SCF Done:  E(RwB97XD) =  -1333.82109474     A.U. after   14 cycles
 SCF Done:  E(RwB97XD) =  -1333.82109668     A.U. after   13 cycles
 SCF Done:  E(RwB97XD) =  -1333.82110220     A.U. after   13 cycles
 SCF Done:  E(RwB97XD) =  -1333.82110367     A.U. after   12 cycles
 SCF Done:  E(RwB97XD) =  -1333.82110502     A.U. after   12 cycles
 SCF Done:  E(RwB97XD) =  -1333.82110749     A.U. after   12 cycles
 SCF Done:  E(RwB97XD) =  -1333.82110948     A.U. after   12 cycles
 SCF Done:  E(RwB97XD) =  -1333.82111031     A.U. after   12 cycles
 SCF Done:  E(RwB97XD) =  -1333.82111047     A.U. after   11 cycles
 Optimization completed.
    -- Stationary point found.

                         Standard orientation:
 ---------------------------------------------------------------------
 Center     Atomic      Atomic             Coordinates (Angstroms)
 Number     Number       Type             X           Y           Z
 ---------------------------------------------------------------------
      1          6           0       -0.664978   -0.562069   -0.185175
      2          6           0       -1.573366    0.430097    0.110573
      3          6           0       -2.929328   -0.018593    0.098084
      4          6           0       -3.029619   -1.351504   -0.150381
      5         16           0       -1.497150   -2.077031   -0.391827
      6          1           0       -3.786040    0.613766    0.281727
      7          1           0       -3.927818   -1.946294   -0.213420
      8          6           0        0.788005   -0.516984   -0.138833
      9          6           0        1.636934    0.541709   -0.352112
     10         16           0        1.690810   -1.880927    0.467690
     11          6           0        3.002693    0.251303   -0.048877
     12          6           0        3.176493   -1.018474    0.395788
     13          1           0        3.811226    0.954851   -0.194137
     14          1           0        4.099340   -1.510632    0.662257
     15          8           0       -1.169524    1.671256    0.457220
     16          8           0        1.232671    1.697708   -0.937030
     17          6           0        1.522332    2.876886   -0.209719
     18          1           0        2.602011    3.025591   -0.093458
     19          1           0        1.112087    3.704745   -0.787709
     20          1           0        1.047106    2.843746    0.775451
     21          6           0       -2.157084    2.673825    0.554472
     22          1           0       -2.852244    2.475902    1.378354
     23          1           0       -1.625534    3.603380    0.754854
     24          1           0       -2.716364    2.773382   -0.382162
 ---------------------------------------------------------------------

 The electronic state is 1-A.
 Alpha  occ. eigenvalues --  -89.04504 -89.04137 -19.28314 -19.26496 -10.35196
 Alpha  occ. eigenvalues --  -10.34300 -10.34170 -10.32810 -10.32058 -10.32003
 Alpha  occ. eigenvalues --  -10.31870 -10.31417 -10.29536 -10.28931  -8.08590
 Alpha  occ. eigenvalues --   -8.08222  -6.03425  -6.03061  -6.03044  -6.02680
 Alpha  occ. eigenvalues --   -6.02680  -6.02302  -1.18240  -1.16315  -0.99845
 Alpha  occ. eigenvalues --   -0.97807  -0.87346  -0.85219  -0.84020  -0.81708
 Alpha  occ. eigenvalues --   -0.78821  -0.77023  -0.69513  -0.66751  -0.65179
 Alpha  occ. eigenvalues --   -0.64369  -0.62697  -0.57438  -0.56901  -0.56172
 Alpha  occ. eigenvalues --   -0.55089  -0.54130  -0.53431  -0.51909  -0.50250
 Alpha  occ. eigenvalues --   -0.49217  -0.48742  -0.46745  -0.46292  -0.44105
 Alpha  occ. eigenvalues --   -0.42951  -0.42658  -0.41914  -0.41295  -0.37077
 Alpha  occ. eigenvalues --   -0.35170  -0.31752  -0.31013  -0.26774
 Alpha virt. eigenvalues --    0.02318   0.05609   0.06139   0.06482   0.07079
 Alpha virt. eigenvalues --    0.07692   0.07813   0.08534   0.08932   0.09659
 Alpha virt. eigenvalues --    0.09882   0.10523   0.10748   0.11113   0.11456

 Mulliken charges:
               1
     1  C    1.615700
     2  C   -0.035103
     3  C   -0.173593
     4  C   -0.137746
     5  S   -0.477971
     6  H    0.155762
     7  H    0.187412
     8  C   -0.323259
     9  C   -0.674459
    10  S   -0.401084
    11  C    0.116529
    12  C   -0.277323
    13  H    0.147677
    14  H    0.184630
    15  O   -0.128486
    16  O   -0.055156
    17  C   -0.365291
    18  H    0.140334
    19  H    0.161798
    20  H    0.161179
    21  C   -0.310262
    22  H    0.152149
    23  H    0.166945
    24  H    0.169621
 Sum of Mulliken charges =  -0.00000

 Dipole moment (field-independent basis, Debye):
    X=             -1.0698    Y=              2.4044    Z=              1.1963  Tot=              2.8908
 Quadrupole moment (field-independent basis, Debye-Ang):
   XX=            -78.2190   YY=            -85.8909   ZZ=           -102.4623
   XY=             -1.4063   XZ=              0.7013   YZ=              1.6005

 Normal termination of Gaussian 16 at Fri Feb  7 02:21:53 2020.
