 Gaussian 16, Revision A.03,
 Gaussian 16:  ES64L-G16RevA.03 25-Dec-2016

 --------------------------------------------------------
 # opt=modredundant wb97xd/6-311+g(d,p) geom=connectivity
 --------------------------------------------------------

 -------------------
 Title Card Required
 -------------------
 Symbolic Z-matrix:
 Charge =  0 Multiplicity = 1

 SCF Done:  E(RwB97XD) =  -1333.82292883     A.U. after   18 cycles
 SCF Done:  E(RwB97XD) =  -1333.82456568     A.U. after   13 cycles
 SCF Done:  E(RwB97XD) =  -1333.82473735     A.U. after   13 cycles
 SCF Done:  E(RwB97XD) =  -1333.82477380     A.U. after   13 cycles
 SCF Done:  E(RwB97XD) =  -1333.82480578     A.U. after   12 cycles
 SCF Done:  E(RwB97XD) =  -1333.82481114     A.U. after   11 cycles
 SCF Done:  E(RwB97XD) =  -1333.82481644     A.U. after   12 cycles
 SCF Done:  E(RwB97XD) =  -1333.82481920     A.U. after   11 cycles
 SCF Done:  E(RwB97XD) =  -1333.82482104     A.U. after   11 cycles
 SCF Done:  E(RwB97XD) =  -1333.82482190     A.U. after   11 cycles
 SCF Done:  E(RwB97XD) =  -1333.82482195     A.U. after   10 cycles
 Optimization completed.
    -- Stationary point found.

                         Standard orientation:
 ---------------------------------------------------------------------
 Center     Atomic      Atomic             Coordinates (Angstroms)
 Number     Number       Type             X           Y           Z
 ---------------------------------------------------------------------
      1          6           0       -0.723440   -0.527122    0.092547
      2          6           0       -1.604431    0.431697   -0.342102
      3          6           0       -2.959034    0.160369    0.018689
      4          6           0       -3.079356   -1.004122    0.714969
      5         16           0       -1.568458   -1.773828    0.956535
      6          1           0       -3.802099    0.788178   -0.232191
      7          1           0       -3.985051   -1.451044    1.095726
      8          6           0        0.720351   -0.534005   -0.079065
      9          6           0        1.609250    0.421701    0.346198
     10         16           0        1.551583   -1.781570   -0.955401
     11          6           0        2.959330    0.144720   -0.026942
     12          6           0        3.068092   -1.019176   -0.726084
     13          1           0        3.807424    0.768302    0.217441
     14          1           0        3.968464   -1.470322   -1.114423
     15          8           0       -1.164068    1.488793   -1.058188
     16          8           0        1.179767    1.481325    1.065163
     17          6           0        2.134879    2.463086    1.400074
     18          1           0        2.590261    2.899092    0.503552
     19          1           0        1.595394    3.238690    1.941364
     20          1           0        2.920399    2.055524    2.047130
     21          6           0       -2.112085    2.474170   -1.402597
     22          1           0       -2.573052    2.913517   -0.510574
     23          1           0       -1.564744    3.246597   -1.940528
     24          1           0       -2.893931    2.068974   -2.055555
 ---------------------------------------------------------------------

 The electronic state is 1-A.
 Alpha  occ. eigenvalues --  -89.04033 -89.04030 -19.27676 -19.27670 -10.34560
 Alpha  occ. eigenvalues --  -10.34557 -10.33670 -10.33665 -10.31415 -10.31413
 Alpha  occ. eigenvalues --  -10.31048 -10.31012 -10.29071 -10.29067  -8.08101
 Alpha  occ. eigenvalues --   -8.08098  -6.02928  -6.02925  -6.02553  -6.02550
 Alpha  occ. eigenvalues --   -6.02205  -6.02202  -1.17669  -1.17377  -0.99412
 Alpha  occ. eigenvalues --   -0.97632  -0.87097  -0.84472  -0.84468  -0.81708
 Alpha  occ. eigenvalues --   -0.78752  -0.76886  -0.69123  -0.65773  -0.65465
 Alpha  occ. eigenvalues --   -0.63930  -0.63264  -0.57462  -0.56313  -0.56150
 Alpha  occ. eigenvalues --   -0.55191  -0.54086  -0.52931  -0.52347  -0.49640
 Alpha  occ. eigenvalues --   -0.49300  -0.48214  -0.46470  -0.46461  -0.43065
 Alpha  occ. eigenvalues --   -0.42392  -0.42082  -0.41938  -0.41365  -0.40494
 Alpha  occ. eigenvalues --   -0.33164  -0.31830  -0.29722  -0.27121
 Alpha virt. eigenvalues --    0.03638   0.05607   0.06004   0.06374   0.07121
 Alpha virt. eigenvalues --    0.07486   0.07832   0.08685   0.08867   0.09276
 Alpha virt. eigenvalues --    0.09324   0.10597   0.10611   0.11897   0.11956

 Mulliken charges:
               1
     1  C    0.968401
     2  C   -0.756658
     3  C   -0.135113
     4  C   -0.216747
     5  S   -0.214569
     6  H    0.153392
     7  H    0.185380
     8  C    0.833004
     9  C   -0.793599
    10  S   -0.206165
    11  C   -0.129677
    12  C   -0.224348
    13  H    0.153312
    14  H    0.185336
    15  O   -0.074595
    16  O   -0.076156
    17  C   -0.314170
    18  H    0.163442
    19  H    0.172024
    20  H    0.153121
    21  C   -0.314365
    22  H    0.163557
    23  H    0.172067
    24  H    0.153124
 Sum of Mulliken charges =  -0.00000

 Dipole moment (field-independent basis, Debye):
    X=              0.0068    Y=              2.6128    Z=             -0.0244  Tot=              2.6129
 Quadrupole moment (field-independent basis, Debye-Ang):
   XX=            -77.0548   YY=            -88.4637   ZZ=            -97.7093
   XY=              0.0019   XZ=              1.7231   YZ=             -0.0135

 Normal termination of Gaussian 16 at Thu Feb  6 17:47:29 2020.
