 Gaussian 16, Revision A.03,
 Gaussian 16:  ES64L-G16RevA.03 25-Dec-2016

 --------------------------------------------------------
 # opt=modredundant wb97xd/6-311+g(d,p) geom=connectivity
 --------------------------------------------------------

 -------------------
 Title Card Required
 -------------------
 Symbolic Z-matrix:
 Charge =  0 Multiplicity = 1

 SCF Done:  E(RwB97XD) =  -1333.82295260     A.U. after   17 cycles
 SCF Done:  E(RwB97XD) =  -1333.82447437     A.U. after   14 cycles
 SCF Done:  E(RwB97XD) =  -1333.82461553     A.U. after   13 cycles
 SCF Done:  E(RwB97XD) =  -1333.82464797     A.U. after   13 cycles
 SCF Done:  E(RwB97XD) =  -1333.82467106     A.U. after   13 cycles
 SCF Done:  E(RwB97XD) =  -1333.82467146     A.U. after   10 cycles
 Optimization completed.
    -- Stationary point found.

                         Standard orientation:
 ---------------------------------------------------------------------
 Center     Atomic      Atomic             Coordinates (Angstroms)
 Number     Number       Type             X           Y           Z
 ---------------------------------------------------------------------
      1          6           0        0.683661   -0.254597   -0.323635
      2          6           0        1.780444    0.297337    0.289991
      3          6           0        2.980466   -0.448985    0.086250
      4          6           0        2.768310   -1.553964   -0.682120
      5         16           0        1.134196   -1.701778   -1.169607
      6          1           0        3.947370   -0.186621    0.491122
      7          1           0        3.495469   -2.293632   -0.981091
      8          6           0       -0.683870    0.246907   -0.329083
      9          6           0       -1.783093   -0.298217    0.286231
     10         16           0       -1.126631    1.696986   -1.174130
     11          6           0       -2.979666    0.453109    0.080701
     12          6           0       -2.761849    1.556657   -0.688160
     13          1           0       -3.948109    0.195266    0.484797
     14          1           0       -3.485622    2.298804   -0.989196
     15          8           0        1.658986    1.436628    1.008451
     16          8           0       -1.666823   -1.436218    1.007555
     17          6           0       -2.837302   -1.939021    1.613933
     18          1           0       -3.599822   -2.187886    0.866946
     19          1           0       -2.540867   -2.846007    2.138236
     20          1           0       -3.251921   -1.225570    2.335282
     21          6           0        2.827101    1.946226    1.613705
     22          1           0        3.588754    2.196247    0.866222
     23          1           0        2.526581    2.853413    2.135329
     24          1           0        3.244605    1.236657    2.337217
 ---------------------------------------------------------------------

 The electronic state is 1-A.
 Alpha  occ. eigenvalues --  -89.03896 -89.03895 -19.27803 -19.27801 -10.34620
 Alpha  occ. eigenvalues --  -10.34618 -10.33700 -10.33699 -10.31378 -10.31377
 Alpha  occ. eigenvalues --  -10.31012 -10.30977 -10.29018 -10.29016  -8.07961
 Alpha  occ. eigenvalues --   -8.07960  -6.02788  -6.02787  -6.02411  -6.02410
 Alpha  occ. eigenvalues --   -6.02066  -6.02065  -1.17629  -1.17537  -0.99340
 Alpha  occ. eigenvalues --   -0.97603  -0.86986  -0.84875  -0.84072  -0.81695
 Alpha  occ. eigenvalues --   -0.78728  -0.76904  -0.68911  -0.66558  -0.64807
 Alpha  occ. eigenvalues --   -0.63970  -0.63137  -0.57495  -0.56317  -0.56196
 Alpha  occ. eigenvalues --   -0.55149  -0.54180  -0.52693  -0.52650  -0.49512
 Alpha  occ. eigenvalues --   -0.49428  -0.48247  -0.46618  -0.46158  -0.42872
 Alpha  occ. eigenvalues --   -0.42461  -0.42030  -0.41927  -0.41291  -0.40857
 Alpha  occ. eigenvalues --   -0.32731  -0.31609  -0.29598  -0.27608
 Alpha virt. eigenvalues --    0.03835   0.05760   0.06074   0.06349   0.07194
 Alpha virt. eigenvalues --    0.07414   0.07935   0.08821   0.08853   0.09016
 Alpha virt. eigenvalues --    0.09129   0.10672   0.10978   0.11675   0.11919

 Mulliken charges:
               1
     1  C    1.501977
     2  C   -1.259566
     3  C    0.060765
     4  C   -0.263529
     5  S   -0.245316
     6  H    0.153837
     7  H    0.185293
     8  C    1.203289
     9  C   -1.326064
    10  S   -0.248287
    11  C    0.060704
    12  C   -0.271759
    13  H    0.153628
    14  H    0.185266
    15  O   -0.120432
    16  O   -0.120957
    17  C   -0.314900
    18  H    0.157245
    19  H    0.174035
    20  H    0.159128
    21  C   -0.315088
    22  H    0.157410
    23  H    0.174104
    24  H    0.159216
 Sum of Mulliken charges =  -0.00000

 Dipole moment (field-independent basis, Debye):
    X=             -0.0015    Y=              0.0153    Z=              1.5880  Tot=              1.5880
 Quadrupole moment (field-independent basis, Debye-Ang):
   XX=            -73.6984   YY=            -91.4531   ZZ=            -95.8723
   XY=              2.6049   XZ=             -0.0086   YZ=              0.0065

 Normal termination of Gaussian 16 at Thu Feb  6 21:58:20 2020.
