 Gaussian 16, Revision A.03,
 Gaussian 16:  ES64L-G16RevA.03 25-Dec-2016

 --------------------------------------------------------
 # opt=modredundant wb97xd/6-311+g(d,p) geom=connectivity
 --------------------------------------------------------

 -------------------
 Title Card Required
 -------------------
 Symbolic Z-matrix:
 Charge =  0 Multiplicity = 1

 SCF Done:  E(RwB97XD) =  -1333.82280536     A.U. after   17 cycles
 SCF Done:  E(RwB97XD) =  -1333.82443300     A.U. after   15 cycles
 SCF Done:  E(RwB97XD) =  -1333.82460868     A.U. after   13 cycles
 SCF Done:  E(RwB97XD) =  -1333.82463893     A.U. after   13 cycles
 SCF Done:  E(RwB97XD) =  -1333.82463158     A.U. after   12 cycles
 SCF Done:  E(RwB97XD) =  -1333.82463172     A.U. after   11 cycles
 SCF Done:  E(RwB97XD) =  -1333.82463142     A.U. after   12 cycles
 SCF Done:  E(RwB97XD) =  -1333.82463192     A.U. after   11 cycles
 Optimization completed.
    -- Stationary point found.

                         Standard orientation:
 ---------------------------------------------------------------------
 Center     Atomic      Atomic             Coordinates (Angstroms)
 Number     Number       Type             X           Y           Z
 ---------------------------------------------------------------------
      1          6           0        0.708448    0.427978   -0.187949
      2          6           0        1.694948   -0.330652    0.388821
      3          6           0        2.980122   -0.134301   -0.202114
      4          6           0        2.939159    0.770089   -1.220457
      5         16           0        1.363631    1.388101   -1.477027
      6          1           0        3.886269   -0.634644    0.108143
      7          1           0        3.762557    1.103746   -1.833643
      8          6           0       -0.708944    0.441456    0.150972
      9          6           0       -1.693254   -0.369403   -0.353985
     10         16           0       -1.369133    1.521855    1.338140
     11          6           0       -2.980230   -0.118990    0.212125
     12          6           0       -2.943032    0.879327    1.138718
     13          1           0       -3.884953   -0.648175   -0.050862
     14          1           0       -3.768397    1.269081    1.715061
     15          8           0        1.402654   -1.162855    1.412686
     16          8           0       -1.397412   -1.294948   -1.293208
     17          6           0       -2.457723   -2.096514   -1.766116
     18          1           0       -3.235645   -1.490402   -2.244532
     19          1           0       -2.023384   -2.767979   -2.504981
     20          1           0       -2.901876   -2.689093   -0.958130
     21          6           0        2.465015   -1.915309    1.956409
     22          1           0        3.243972   -1.266001    2.372408
     23          1           0        2.033454   -2.513536    2.757228
     24          1           0        2.907054   -2.581966    1.207121
 ---------------------------------------------------------------------

 The electronic state is 1-A.
 Alpha  occ. eigenvalues --  -89.03940 -89.03939 -19.27766 -19.27764 -10.34612
 Alpha  occ. eigenvalues --  -10.34612 -10.33681 -10.33679 -10.31421 -10.31419
 Alpha  occ. eigenvalues --  -10.30915 -10.30880 -10.29035 -10.29034  -8.08005
 Alpha  occ. eigenvalues --   -8.08004  -6.02830  -6.02829  -6.02455  -6.02454
 Alpha  occ. eigenvalues --   -6.02114  -6.02113  -1.17625  -1.17496  -0.99334
 Alpha  occ. eigenvalues --   -0.97612  -0.86985  -0.84694  -0.84210  -0.81717
 Alpha  occ. eigenvalues --   -0.78706  -0.76889  -0.68961  -0.66092  -0.65187
 Alpha  occ. eigenvalues --   -0.63948  -0.63189  -0.57520  -0.56281  -0.56186
 Alpha  occ. eigenvalues --   -0.55084  -0.54149  -0.52755  -0.52566  -0.49471
 Alpha  occ. eigenvalues --   -0.49446  -0.48184  -0.46556  -0.46315  -0.42678
 Alpha  occ. eigenvalues --   -0.42654  -0.42038  -0.41820  -0.41374  -0.40862
 Alpha  occ. eigenvalues --   -0.32116  -0.31958  -0.28723  -0.28682
 Alpha virt. eigenvalues --    0.04595   0.04832   0.06040   0.06343   0.07281
 Alpha virt. eigenvalues --    0.07283   0.07823   0.08798   0.08832   0.08943
 Alpha virt. eigenvalues --    0.09178   0.10604   0.10652   0.11841   0.11915

 Mulliken charges:
               1
     1  C    1.066365
     2  C   -1.273411
     3  C    0.149524
     4  C   -0.356447
     5  S   -0.080751
     6  H    0.153992
     7  H    0.185147
     8  C    1.150973
     9  C   -1.241113
    10  S   -0.082799
    11  C    0.143801
    12  C   -0.350682
    13  H    0.154071
    14  H    0.185148
    15  O   -0.095938
    16  O   -0.095621
    17  C   -0.296818
    18  H    0.158464
    19  H    0.173605
    20  H    0.158548
    21  C   -0.296522
    22  H    0.158321
    23  H    0.173581
    24  H    0.158563
 Sum of Mulliken charges =  -0.00000

 Dipole moment (field-independent basis, Debye):
    X=              0.0015    Y=             -2.0878    Z=              0.0911  Tot=              2.0898
 Quadrupole moment (field-independent basis, Debye-Ang):
   XX=            -75.4391   YY=            -92.8441   ZZ=            -93.5773
   XY=              0.1202   XZ=              2.5444   YZ=             -0.0285

 Normal termination of Gaussian 16 at Thu Feb  6 22:26:01 2020.
