 Gaussian 16, Revision C.01,
 Gaussian 16:  ES64L-G16RevC.01  3-Jul-2019

 ---------------------------------------------------------------
 # opt=modredundant b3lyp/6-311+g(d,p) scrf=(pcm, solvent=water)
 ---------------------------------------------------------------

 -----------
 NDI_125.pdb
 -----------
 Symbolic Z-matrix:
 Charge = -2 Multiplicity = 1

 SCF Done:  E(RB3LYP) =  -2359.60172380     A.U. after   17 cycles
 SCF Done:  E(RB3LYP) =  -2359.61988062     A.U. after   16 cycles
 SCF Done:  E(RB3LYP) =  -2359.62378736     A.U. after   14 cycles
 SCF Done:  E(RB3LYP) =  -2359.62483624     A.U. after   13 cycles
 SCF Done:  E(RB3LYP) =  -2359.62494443     A.U. after   12 cycles
 SCF Done:  E(RB3LYP) =  -2359.62511684     A.U. after   12 cycles
 SCF Done:  E(RB3LYP) =  -2359.62513791     A.U. after   11 cycles
 SCF Done:  E(RB3LYP) =  -2359.62515641     A.U. after   11 cycles
 SCF Done:  E(RB3LYP) =  -2359.62517047     A.U. after   11 cycles
 SCF Done:  E(RB3LYP) =  -2359.62518593     A.U. after   11 cycles
 SCF Done:  E(RB3LYP) =  -2359.62525819     A.U. after   12 cycles
 SCF Done:  E(RB3LYP) =  -2359.62526659     A.U. after   11 cycles
 SCF Done:  E(RB3LYP) =  -2359.62526825     A.U. after   11 cycles
 SCF Done:  E(RB3LYP) =  -2359.62526885     A.U. after    9 cycles
 SCF Done:  E(RB3LYP) =  -2359.62526911     A.U. after    9 cycles
 SCF Done:  E(RB3LYP) =  -2359.62526931     A.U. after   10 cycles
 SCF Done:  E(RB3LYP) =  -2359.62526943     A.U. after   10 cycles
 SCF Done:  E(RB3LYP) =  -2359.62526950     A.U. after    9 cycles
 SCF Done:  E(RB3LYP) =  -2359.62526956     A.U. after    9 cycles
 Optimization completed.
    -- Stationary point found.

                         Standard orientation:
 ---------------------------------------------------------------------
 Center     Atomic      Atomic             Coordinates (Angstroms)
 Number     Number       Type             X           Y           Z
 ---------------------------------------------------------------------
      1          6           0        3.439003   -2.718102    0.366848
      2          6           0        2.746618   -1.495967    0.083107
      3          6           0        3.434614   -0.257814    0.139304
      4          6           0        4.808209   -0.200395    0.481472
      5          6           0        5.529060   -1.406025    0.779355
      6          6           0        1.348260   -1.515852   -0.195761
      7          6           0        2.717223    0.957635   -0.178023
      8          6           0        1.336841    0.900268   -0.534050
      9          6           0        0.638118   -0.375243   -0.474141
     10          6           0        0.708849    2.090261   -1.038649
     11          6           0        2.776095    3.409223   -0.516975
     12          6           0        3.429766    2.185506   -0.155793
     13          6           0        4.816973    2.210904    0.207650
     14          6           0        5.483445    1.063580    0.517680
     15          1           0        6.532558    1.079818    0.785641
     16          1           0        5.319773    3.170100    0.220094
     17          1           0        0.830965   -2.464085   -0.121033
     18          7           0        1.444407    3.291871   -0.942655
     19          7           0        4.801077   -2.609396    0.695818
     20          8           0        2.916028   -3.859426    0.342015
     21          8           0        6.743029   -1.437406    1.096352
     22          8           0        3.327321    4.537711   -0.491486
     23          8           0       -0.425627    2.148251   -1.565393
     24          6           0        0.757275    4.501660   -1.399992
     25          1           0        0.606616    4.474965   -2.482103
     26          1           0       -0.220599    4.573968   -0.924710
     27          1           0        1.373597    5.355540   -1.138256
     28          6           0        5.500466   -3.865382    0.975977
     29          1           0        5.069229   -4.354488    1.851824
     30          1           0        5.404834   -4.544232    0.127577
     31          1           0        6.544864   -3.633625    1.157571
     32          6           0       -0.826582   -0.518986   -0.592821
     33          6           0       -1.527221   -1.300485   -1.475160
     34         16           0       -1.905826    0.194596    0.586393
     35          6           0       -2.930516   -1.311000   -1.230634
     36          1           0       -1.047440   -1.832982   -2.283629
     37          6           0       -3.332435   -0.547601   -0.145994
     38          8           0       -3.863951   -1.985696   -1.963619
     39          6           0       -4.670467   -0.339199    0.355650
     40          6           0       -3.413891   -2.739326   -3.092691
     41          6           0       -5.075037    0.392846    1.464290
     42         16           0       -6.093218   -1.031847   -0.424467
     43          1           0       -4.306083   -3.184860   -3.528654
     44          1           0       -2.931249   -2.091865   -3.830176
     45          1           0       -2.723213   -3.530376   -2.787370
     46          6           0       -6.484444    0.401813    1.681294
     47          8           0       -4.142559    1.021753    2.237511
     48          6           0       -7.158896   -0.323866    0.741330
     49          1           0       -6.973017    0.918911    2.494425
     50          6           0       -4.604864    1.776681    3.360170
     51          1           0       -8.222547   -0.489506    0.664918
     52          1           0       -5.126556    1.136367    4.077361
     53          1           0       -3.714127    2.192768    3.826899
     54          1           0       -5.263976    2.589966    3.043002
 ---------------------------------------------------------------------

 The electronic state is 1-A.
 Alpha  occ. eigenvalues --  -88.87638 -88.86502 -19.15907 -19.15879 -19.06735
 Alpha  occ. eigenvalues --  -19.06670 -19.06572 -19.06278 -14.34633 -14.34378
 Alpha  occ. eigenvalues --  -10.25171 -10.24961 -10.24953 -10.24888 -10.23544
 Alpha  occ. eigenvalues --  -10.23286 -10.22275 -10.22214 -10.20967 -10.20243
 Alpha  occ. eigenvalues --  -10.20232 -10.19818 -10.18545 -10.18414 -10.18129
 Alpha  occ. eigenvalues --  -10.18014 -10.17949 -10.17413 -10.16824 -10.15905
 Alpha  occ. eigenvalues --  -10.15706 -10.15460 -10.15365 -10.15343 -10.15299
 Alpha  occ. eigenvalues --  -10.15229  -7.96202  -7.95081  -5.92510  -5.92127
 Alpha  occ. eigenvalues --   -5.91772  -5.91402  -5.91020  -5.90617  -1.07212
 Alpha  occ. eigenvalues --   -1.07095  -1.02410  -1.02287  -0.99943  -0.99812
 Alpha  occ. eigenvalues --   -0.91134  -0.90886  -0.88898  -0.87339  -0.86097
 Alpha  occ. eigenvalues --   -0.81276  -0.79053  -0.77424  -0.75442  -0.74191
 Alpha  occ. eigenvalues --   -0.73683  -0.72698  -0.71639  -0.71219  -0.69161
 Alpha  occ. eigenvalues --   -0.68740  -0.67948  -0.66314  -0.62541  -0.61781
 Alpha  occ. eigenvalues --   -0.60943  -0.59800  -0.58972  -0.57272  -0.55040
 Alpha  occ. eigenvalues --   -0.54903  -0.53516  -0.53398  -0.52841  -0.50582
 Alpha  occ. eigenvalues --   -0.49497  -0.48165  -0.47396  -0.47105  -0.47076
 Alpha  occ. eigenvalues --   -0.46616  -0.46077  -0.45788  -0.45452  -0.44822
 Alpha  occ. eigenvalues --   -0.44453  -0.44343  -0.44166  -0.42709  -0.42209
 Alpha  occ. eigenvalues --   -0.41502  -0.41146  -0.40909  -0.40515  -0.40376
 Alpha  occ. eigenvalues --   -0.40164  -0.39990  -0.39219  -0.38281  -0.38223
 Alpha  occ. eigenvalues --   -0.37896  -0.37665  -0.37422  -0.36916  -0.36805
 Alpha  occ. eigenvalues --   -0.36402  -0.36225  -0.35101  -0.34858  -0.34482
 Alpha  occ. eigenvalues --   -0.33328  -0.33030  -0.32706  -0.32393  -0.31676
 Alpha  occ. eigenvalues --   -0.30069  -0.27778  -0.26705  -0.26333  -0.25771
 Alpha  occ. eigenvalues --   -0.25591  -0.25036  -0.24484  -0.24138  -0.23942
 Alpha  occ. eigenvalues --   -0.23628  -0.23217  -0.20861  -0.18199  -0.13206
 Alpha virt. eigenvalues --   -0.04460  -0.03417  -0.01207  -0.00446  -0.00056
 Alpha virt. eigenvalues --    0.00544   0.00691   0.00970   0.01137   0.01490
 Alpha virt. eigenvalues --    0.01861   0.02562   0.02740   0.03080   0.03133

 Mulliken charges:
               1
     1  C    0.376866
     2  C   -0.177879
     3  C    0.087159
     4  C    0.240329
     5  C    0.263028
     6  C   -0.504106
     7  C    0.157765
     8  C   -0.028437
     9  C    0.209150
    10  C   -0.284884
    11  C    0.318119
    12  C    0.174374
    13  C   -0.533555
    14  C   -0.644580
    15  H    0.122740
    16  H    0.123501
    17  H    0.122458
    18  N   -0.102287
    19  N   -0.157607
    20  O   -0.527374
    21  O   -0.512143
    22  O   -0.516985
    23  O   -0.436527
    24  C   -0.178488
    25  H    0.162000
    26  H    0.162340
    27  H    0.168510
    28  C   -0.200412
    29  H    0.161038
    30  H    0.158958
    31  H    0.168636
    32  C    0.119351
    33  C   -0.473859
    34  S   -0.488647
    35  C   -0.231356
    36  H    0.140364
    37  C    0.326404
    38  O   -0.157908
    39  C    0.854128
    40  C   -0.254384
    41  C   -0.000809
    42  S   -0.226792
    43  H    0.172444
    44  H    0.161473
    45  H    0.160650
    46  C   -0.534476
    47  O   -0.170870
    48  C   -0.342890
    49  H    0.157183
    50  C   -0.248759
    51  H    0.183899
    52  H    0.155417
    53  H    0.170941
    54  H    0.156787
 Sum of Mulliken charges =  -2.00000

 Dipole moment (field-independent basis, Debye):
    X=            -27.2319    Y=             -3.0658    Z=              1.0516  Tot=             27.4241
 Quadrupole moment (field-independent basis, Debye-Ang):
   XX=           -375.5630   YY=           -303.0671   ZZ=           -221.1434
   XY=             -9.0135   XZ=            -25.3652   YZ=             26.2912

 Normal termination of Gaussian 16 at Thu Oct 28 14:06:27 2021.
