 Gaussian 16, Revision C.01,
 Gaussian 16:  ES64L-G16RevC.01  3-Jul-2019

 ---------------------------------------------------------------
 # opt=modredundant b3lyp/6-311+g(d,p) scrf=(pcm, solvent=water)
 ---------------------------------------------------------------

 -----------
 NDI_175.pdb
 -----------
 Symbolic Z-matrix:
 Charge = -2 Multiplicity = 1

 SCF Done:  E(RB3LYP) =  -2359.55604387     A.U. after   17 cycles
 SCF Done:  E(RB3LYP) =  -2359.59355861     A.U. after   17 cycles
 SCF Done:  E(RB3LYP) =  -2359.60947942     A.U. after   14 cycles
 SCF Done:  E(RB3LYP) =  -2359.61446059     A.U. after   14 cycles
 SCF Done:  E(RB3LYP) =  -2359.61671415     A.U. after   16 cycles
 SCF Done:  E(RB3LYP) =  -2359.61755353     A.U. after   17 cycles
 SCF Done:  E(RB3LYP) =  -2359.61887673     A.U. after   15 cycles
 SCF Done:  E(RB3LYP) =  -2359.61974806     A.U. after   14 cycles
 SCF Done:  E(RB3LYP) =  -2359.62010272     A.U. after   13 cycles
 SCF Done:  E(RB3LYP) =  -2359.62034472     A.U. after   13 cycles
 SCF Done:  E(RB3LYP) =  -2359.62058432     A.U. after   11 cycles
 SCF Done:  E(RB3LYP) =  -2359.62059517     A.U. after   11 cycles
 SCF Done:  E(RB3LYP) =  -2359.62060118     A.U. after   11 cycles
 SCF Done:  E(RB3LYP) =  -2359.62060220     A.U. after    9 cycles
 SCF Done:  E(RB3LYP) =  -2359.62060341     A.U. after   10 cycles
 SCF Done:  E(RB3LYP) =  -2359.62060425     A.U. after    9 cycles
 SCF Done:  E(RB3LYP) =  -2359.62060465     A.U. after    9 cycles
 SCF Done:  E(RB3LYP) =  -2359.62060513     A.U. after    9 cycles
 SCF Done:  E(RB3LYP) =  -2359.62060539     A.U. after    9 cycles
 SCF Done:  E(RB3LYP) =  -2359.62060537     A.U. after    9 cycles
 Optimization completed.
    -- Stationary point found.

                         Standard orientation:
 ---------------------------------------------------------------------
 Center     Atomic      Atomic             Coordinates (Angstroms)
 Number     Number       Type             X           Y           Z
 ---------------------------------------------------------------------
      1          6           0       -3.625020   -2.618488   -0.066327
      2          6           0       -2.845426   -1.430591    0.138293
      3          6           0       -3.412751   -0.155134   -0.113689
      4          6           0       -4.744059   -0.023864   -0.568866
      5          6           0       -5.551051   -1.195471   -0.788668
      6          6           0       -1.472566   -1.536712    0.480425
      7          6           0       -2.606321    1.018477    0.128015
      8          6           0       -1.267869    0.884705    0.604272
      9          6           0       -0.656344   -0.444763    0.692447
     10          6           0       -0.644146    2.054511    1.154185
     11          6           0       -2.480042    3.489100    0.241782
     12          6           0       -3.205798    2.290787   -0.070226
     13          6           0       -4.551453    2.391773   -0.549563
     14          6           0       -5.297388    1.277049   -0.796020
     15          1           0       -6.318340    1.350299   -1.149201
     16          1           0       -4.962473    3.383090   -0.695905
     17          1           0       -1.054018   -2.533629    0.469918
     18          7           0       -1.230067    3.303492    0.843927
     19          7           0       -4.944260   -2.436680   -0.516622
     20          8           0       -3.211966   -3.786616    0.124214
     21          8           0       -6.735670   -1.159681   -1.194117
     22          8           0       -2.911922    4.650330    0.039964
     23          8           0        0.362527    2.057520    1.900359
     24          6           0       -0.506051    4.492481    1.299035
     25          1           0       -0.644746    4.650206    2.372606
     26          1           0        0.557681    4.363778    1.109350
     27          1           0       -0.894196    5.350999    0.759648
     28          6           0       -5.731048   -3.655569   -0.719336
     29          1           0       -5.273768   -4.278536   -1.490440
     30          1           0       -5.771338   -4.233681    0.204790
     31          1           0       -6.730325   -3.362535   -1.023826
     32          6           0        0.792524   -0.702166    0.708338
     33          6           0        1.415989   -1.928148    0.887076
     34         16           0        1.955056    0.451011    0.075603
     35          6           0        2.785298   -1.937241    0.539794
     36          1           0        0.898537   -2.797267    1.264624
     37          6           0        3.266264   -0.728503    0.051144
     38          8           0        3.634876   -3.001123    0.658159
     39          6           0        4.613385   -0.394170   -0.338737
     40          6           0        3.107783   -4.225776    1.172767
     41          6           0        5.096501    0.801473   -0.858058
     42         16           0        5.950480   -1.540230   -0.207299
     43          1           0        3.940961   -4.925997    1.190229
     44          1           0        2.721509   -4.092522    2.187407
     45          1           0        2.316882   -4.616397    0.525902
     46          6           0        6.493924    0.800541   -1.139036
     47          8           0        4.240910    1.846881   -1.059498
     48          6           0        7.084663   -0.394057   -0.839156
     49          1           0        7.034067    1.642957   -1.546487
     50          6           0        4.783615    3.060365   -1.584441
     51          1           0        8.120172   -0.673852   -0.957408
     52          1           0        5.219876    2.901212   -2.574955
     53          1           0        3.947036    3.751917   -1.664091
     54          1           0        5.538480    3.477645   -0.911506
 ---------------------------------------------------------------------

 The electronic state is 1-A.
 Alpha  occ. eigenvalues --  -88.87487 -88.86281 -19.15784 -19.15708 -19.07113
 Alpha  occ. eigenvalues --  -19.06965 -19.06681 -19.06360 -14.34826 -14.34405
 Alpha  occ. eigenvalues --  -10.25542 -10.25267 -10.25038 -10.24897 -10.23358
 Alpha  occ. eigenvalues --  -10.23013 -10.22209 -10.22130 -10.20856 -10.20287
 Alpha  occ. eigenvalues --  -10.19836 -10.19655 -10.18657 -10.18502 -10.18194
 Alpha  occ. eigenvalues --  -10.17965 -10.17910 -10.17722 -10.16524 -10.15993
 Alpha  occ. eigenvalues --  -10.15821 -10.15761 -10.15546 -10.15509 -10.15459
 Alpha  occ. eigenvalues --  -10.15351  -7.96052  -7.94834  -5.92360  -5.91978
 Alpha  occ. eigenvalues --   -5.91620  -5.91156  -5.90765  -5.90377  -1.07069
 Alpha  occ. eigenvalues --   -1.06926  -1.02763  -1.02389  -1.00352  -0.99924
 Alpha  occ. eigenvalues --   -0.91406  -0.90994  -0.88711  -0.87222  -0.86147
 Alpha  occ. eigenvalues --   -0.81377  -0.79179  -0.77340  -0.75319  -0.74141
 Alpha  occ. eigenvalues --   -0.73724  -0.72789  -0.71656  -0.71122  -0.69125
 Alpha  occ. eigenvalues --   -0.68773  -0.67991  -0.66265  -0.62679  -0.61907
 Alpha  occ. eigenvalues --   -0.61022  -0.59995  -0.58732  -0.57224  -0.55003
 Alpha  occ. eigenvalues --   -0.54796  -0.53742  -0.53246  -0.52920  -0.50721
 Alpha  occ. eigenvalues --   -0.49799  -0.47647  -0.47299  -0.47101  -0.46982
 Alpha  occ. eigenvalues --   -0.46496  -0.46253  -0.45916  -0.45492  -0.44942
 Alpha  occ. eigenvalues --   -0.44503  -0.44289  -0.44169  -0.42946  -0.42259
 Alpha  occ. eigenvalues --   -0.41306  -0.41060  -0.40922  -0.40592  -0.40360
 Alpha  occ. eigenvalues --   -0.40199  -0.40089  -0.39274  -0.38445  -0.38338
 Alpha  occ. eigenvalues --   -0.38042  -0.37558  -0.37502  -0.37154  -0.37050
 Alpha  occ. eigenvalues --   -0.36250  -0.36025  -0.35328  -0.34783  -0.34428
 Alpha  occ. eigenvalues --   -0.33463  -0.32934  -0.32764  -0.32062  -0.31733
 Alpha  occ. eigenvalues --   -0.30282  -0.27910  -0.26782  -0.26603  -0.25886
 Alpha  occ. eigenvalues --   -0.25800  -0.25101  -0.24600  -0.24445  -0.24006
 Alpha  occ. eigenvalues --   -0.23532  -0.22798  -0.20995  -0.17884  -0.13232
 Alpha virt. eigenvalues --   -0.05307  -0.03312  -0.01576  -0.00551  -0.00091
 Alpha virt. eigenvalues --    0.00630   0.00811   0.01098   0.01669   0.01889
 Alpha virt. eigenvalues --    0.02139   0.02716   0.02786   0.03132   0.03344

 Mulliken charges:
               1
     1  C    0.297990
     2  C   -0.149173
     3  C    0.086662
     4  C    0.216263
     5  C    0.159705
     6  C    0.080038
     7  C    0.081964
     8  C    0.271195
     9  C    0.210550
    10  C   -0.683755
    11  C    0.299956
    12  C    0.065316
    13  C   -0.520012
    14  C   -0.563380
    15  H    0.123692
    16  H    0.124599
    17  H    0.128214
    18  N    0.006099
    19  N   -0.157416
    20  O   -0.518279
    21  O   -0.498393
    22  O   -0.516331
    23  O   -0.451180
    24  C   -0.192243
    25  H    0.162892
    26  H    0.165882
    27  H    0.167148
    28  C   -0.194486
    29  H    0.161839
    30  H    0.159549
    31  H    0.167249
    32  C   -0.007024
    33  C   -0.385956
    34  S   -0.729782
    35  C   -0.520778
    36  H    0.139753
    37  C    0.610646
    38  O   -0.170146
    39  C    0.805612
    40  C   -0.237252
    41  C    0.005859
    42  S   -0.228541
    43  H    0.172281
    44  H    0.158629
    45  H    0.157251
    46  C   -0.534569
    47  O   -0.162069
    48  C   -0.337477
    49  H    0.155898
    50  C   -0.250033
    51  H    0.183035
    52  H    0.154678
    53  H    0.170972
    54  H    0.156857
 Sum of Mulliken charges =  -2.00000

 Dipole moment (field-independent basis, Debye):
    X=             25.1229    Y=             -3.9587    Z=             -1.9514  Tot=             25.5077
 Quadrupole moment (field-independent basis, Debye-Ang):
   XX=           -366.2794   YY=           -286.1465   ZZ=           -242.4276
   XY=             15.3101   XZ=            -25.2131   YZ=            -13.4729

 Normal termination of Gaussian 16 at Thu Oct 28 15:20:56 2021.
