 Gaussian 16, Revision C.01,
 Gaussian 16:  ES64L-G16RevC.01  3-Jul-2019

 ---------------------------------------------------------------
 # opt=modredundant b3lyp/6-311+g(d,p) scrf=(pcm, solvent=water)
 ---------------------------------------------------------------

 -----------
 NDI_-55.pdb
 -----------
 Symbolic Z-matrix:
 Charge = -2 Multiplicity = 1

 SCF Done:  E(RB3LYP) =  -2359.60643713     A.U. after   16 cycles
 SCF Done:  E(RB3LYP) =  -2359.62229704     A.U. after   14 cycles
 SCF Done:  E(RB3LYP) =  -2359.62464559     A.U. after   15 cycles
 SCF Done:  E(RB3LYP) =  -2359.62480247     A.U. after   13 cycles
 SCF Done:  E(RB3LYP) =  -2359.62511098     A.U. after   12 cycles
 SCF Done:  E(RB3LYP) =  -2359.62519888     A.U. after   11 cycles
 SCF Done:  E(RB3LYP) =  -2359.62521418     A.U. after   11 cycles
 SCF Done:  E(RB3LYP) =  -2359.62522710     A.U. after   10 cycles
 SCF Done:  E(RB3LYP) =  -2359.62524009     A.U. after   11 cycles
 SCF Done:  E(RB3LYP) =  -2359.62524702     A.U. after   11 cycles
 SCF Done:  E(RB3LYP) =  -2359.62525639     A.U. after   10 cycles
 SCF Done:  E(RB3LYP) =  -2359.62526639     A.U. after   11 cycles
 SCF Done:  E(RB3LYP) =  -2359.62527135     A.U. after   11 cycles
 SCF Done:  E(RB3LYP) =  -2359.62527206     A.U. after    9 cycles
 SCF Done:  E(RB3LYP) =  -2359.62527233     A.U. after    9 cycles
 SCF Done:  E(RB3LYP) =  -2359.62527249     A.U. after    8 cycles
 SCF Done:  E(RB3LYP) =  -2359.62527264     A.U. after    9 cycles
 SCF Done:  E(RB3LYP) =  -2359.62527275     A.U. after    8 cycles
 SCF Done:  E(RB3LYP) =  -2359.62527278     A.U. after    8 cycles
 SCF Done:  E(RB3LYP) =  -2359.62527279     A.U. after    8 cycles
 Optimization completed.
    -- Stationary point found.

                         Standard orientation:
 ---------------------------------------------------------------------
 Center     Atomic      Atomic             Coordinates (Angstroms)
 Number     Number       Type             X           Y           Z
 ---------------------------------------------------------------------
      1          6           0        2.868313   -2.918219    0.456535
      2          6           0        2.435462   -1.570120    0.233180
      3          6           0        3.388556   -0.533104    0.072032
      4          6           0        4.777501   -0.803518    0.130199
      5          6           0        5.244427   -2.142292    0.359900
      6          6           0        1.045571   -1.258063    0.240569
      7          6           0        2.922854    0.814396   -0.172603
      8          6           0        1.523486    1.085943   -0.245400
      9          6           0        0.575827    0.018073    0.045975
     10          6           0        1.101989    2.385965   -0.692857
     11          6           0        3.481631    3.177177   -0.656445
     12          6           0        3.891456    1.834354   -0.366503
     13          6           0        5.290530    1.529388   -0.292626
     14          6           0        5.721296    0.259343   -0.051805
     15          1           0        6.777070    0.024051   -0.002344
     16          1           0        5.993782    2.339232   -0.442367
     17          1           0        0.354433   -2.055234    0.484218
     18          7           0        2.102113    3.378234   -0.806091
     19          7           0        4.255944   -3.134632    0.510351
     20          8           0        2.100809   -3.899986    0.607224
     21          8           0        6.456603   -2.459371    0.427518
     22          8           0        4.274273    4.141208   -0.798135
     23          8           0       -0.066149    2.710830   -1.003472
     24          6           0        1.637356    4.714200   -1.185526
     25          1           0        1.259436    4.715414   -2.210729
     26          1           0        0.826769    5.025273   -0.526718
     27          1           0        2.478045    5.395674   -1.104801
     28          6           0        4.686435   -4.515097    0.743270
     29          1           0        4.267073   -4.887541    1.679174
     30          1           0        4.339547   -5.161918   -0.064775
     31          1           0        5.770566   -4.524337    0.787873
     32          6           0       -0.863515    0.253137    0.261879
     33          6           0       -1.482704    1.092051    1.153436
     34         16           0       -2.043851   -0.710291   -0.595801
     35          6           0       -2.897548    0.965786    1.155452
     36          1           0       -0.933992    1.775596    1.784154
     37          6           0       -3.399215    0.025169    0.265814
     38          8           0       -3.761177    1.665087    1.948698
     39          6           0       -4.773819   -0.345548    0.031926
     40          6           0       -3.212916    2.638988    2.840898
     41          6           0       -5.275604   -1.288235   -0.856164
     42         16           0       -6.118920    0.399384    0.897105
     43          1           0       -4.062212    3.081443    3.358137
     44          1           0       -2.544736    2.171927    3.569954
     45          1           0       -2.674259    3.415964    2.291329
     46          6           0       -6.695946   -1.411487   -0.844174
     47          8           0       -4.415983   -1.997560   -1.644953
     48          6           0       -7.283176   -0.563491    0.051130
     49          1           0       -7.254081   -2.094109   -1.468599
     50          6           0       -4.973095   -2.967341   -2.535359
     51          1           0       -8.334027   -0.445118    0.266243
     52          1           0       -5.642055   -2.496573   -3.261607
     53          1           0       -4.128533   -3.413728   -3.056764
     54          1           0       -5.512796   -3.743135   -1.984483
 ---------------------------------------------------------------------

 The electronic state is 1-A.
 Alpha  occ. eigenvalues --  -88.87600 -88.86777 -19.15895 -19.15843 -19.06785
 Alpha  occ. eigenvalues --  -19.06709 -19.06575 -19.06232 -14.34660 -14.34357
 Alpha  occ. eigenvalues --  -10.25219 -10.25001 -10.24950 -10.24890 -10.23473
 Alpha  occ. eigenvalues --  -10.23291 -10.22268 -10.22185 -10.20954 -10.20147
 Alpha  occ. eigenvalues --  -10.20132 -10.19763 -10.18558 -10.18408 -10.18147
 Alpha  occ. eigenvalues --  -10.17992 -10.17950 -10.17545 -10.16617 -10.15927
 Alpha  occ. eigenvalues --  -10.15768 -10.15492 -10.15374 -10.15374 -10.15308
 Alpha  occ. eigenvalues --  -10.15234  -7.96165  -7.95346  -5.92473  -5.92090
 Alpha  occ. eigenvalues --   -5.91734  -5.91664  -5.91281  -5.90896  -1.07186
 Alpha  occ. eigenvalues --   -1.07067  -1.02458  -1.02282  -1.00000  -0.99805
 Alpha  occ. eigenvalues --   -0.91173  -0.90867  -0.88899  -0.87365  -0.86117
 Alpha  occ. eigenvalues --   -0.81296  -0.79073  -0.77379  -0.75483  -0.74258
 Alpha  occ. eigenvalues --   -0.73526  -0.72831  -0.71597  -0.71249  -0.69165
 Alpha  occ. eigenvalues --   -0.68770  -0.67943  -0.66251  -0.62623  -0.61761
 Alpha  occ. eigenvalues --   -0.60960  -0.59891  -0.58888  -0.57256  -0.55024
 Alpha  occ. eigenvalues --   -0.54888  -0.53507  -0.53360  -0.52865  -0.50687
 Alpha  occ. eigenvalues --   -0.49435  -0.48262  -0.47381  -0.47061  -0.46980
 Alpha  occ. eigenvalues --   -0.46661  -0.46083  -0.45760  -0.45457  -0.44851
 Alpha  occ. eigenvalues --   -0.44442  -0.44292  -0.44233  -0.42555  -0.42048
 Alpha  occ. eigenvalues --   -0.41738  -0.41114  -0.40859  -0.40454  -0.40427
 Alpha  occ. eigenvalues --   -0.40178  -0.40002  -0.39113  -0.38281  -0.38220
 Alpha  occ. eigenvalues --   -0.38141  -0.37704  -0.37339  -0.36950  -0.36874
 Alpha  occ. eigenvalues --   -0.36448  -0.36176  -0.35104  -0.34895  -0.34473
 Alpha  occ. eigenvalues --   -0.33328  -0.32975  -0.32760  -0.32461  -0.31703
 Alpha  occ. eigenvalues --   -0.30257  -0.27824  -0.26691  -0.26343  -0.25800
 Alpha  occ. eigenvalues --   -0.25586  -0.25015  -0.24651  -0.24171  -0.23865
 Alpha  occ. eigenvalues --   -0.23741  -0.22992  -0.20880  -0.18118  -0.13204
 Alpha virt. eigenvalues --   -0.04590  -0.03329  -0.01356  -0.00431  -0.00033
 Alpha virt. eigenvalues --    0.00590   0.00807   0.00959   0.01247   0.01551
 Alpha virt. eigenvalues --    0.01906   0.02621   0.02634   0.03082   0.03179

 Mulliken charges:
               1
     1  C    0.375504
     2  C   -0.200656
     3  C    0.072011
     4  C    0.169684
     5  C    0.219985
     6  C   -0.519538
     7  C    0.211439
     8  C    0.094478
     9  C    0.449860
    10  C   -0.407272
    11  C    0.220686
    12  C    0.089285
    13  C   -0.521928
    14  C   -0.614913
    15  H    0.122457
    16  H    0.122936
    17  H    0.132530
    18  N   -0.121344
    19  N   -0.158574
    20  O   -0.527832
    21  O   -0.509088
    22  O   -0.515330
    23  O   -0.403201
    24  C   -0.190102
    25  H    0.160639
    26  H    0.160124
    27  H    0.167718
    28  C   -0.198567
    29  H    0.160008
    30  H    0.159623
    31  H    0.167960
    32  C    0.060005
    33  C   -0.439933
    34  S   -0.474351
    35  C   -0.268171
    36  H    0.139189
    37  C    0.586940
    38  O   -0.173194
    39  C    0.721158
    40  C   -0.233037
    41  C   -0.009427
    42  S   -0.244225
    43  H    0.171833
    44  H    0.158677
    45  H    0.160252
    46  C   -0.579025
    47  O   -0.170370
    48  C   -0.347881
    49  H    0.156815
    50  C   -0.250410
    51  H    0.183448
    52  H    0.156130
    53  H    0.170853
    54  H    0.156140
 Sum of Mulliken charges =  -2.00000

 Dipole moment (field-independent basis, Debye):
    X=            -27.3571    Y=             -1.0449    Z=              1.7089  Tot=             27.4303
 Quadrupole moment (field-independent basis, Debye-Ang):
   XX=           -380.5013   YY=           -297.5145   ZZ=           -224.8358
   XY=              9.6654   XZ=              7.0724   YZ=             30.7970

 Normal termination of Gaussian 16 at Thu Oct 28 11:21:52 2021.
