 Gaussian 16, Revision C.01,
 Gaussian 16:  ES64L-G16RevC.01  3-Jul-2019

 ---------------------------------------------------------------
 # opt=modredundant b3lyp/6-311+g(d,p) scrf=(pcm, solvent=water)
 ---------------------------------------------------------------

 ----------
 NDI_65.pdb
 ----------
 Symbolic Z-matrix:
 Charge = -2 Multiplicity = 1

 SCF Done:  E(RB3LYP) =  -2359.60203419     A.U. after   16 cycles
 SCF Done:  E(RB3LYP) =  -2359.61987855     A.U. after   14 cycles
 SCF Done:  E(RB3LYP) =  -2359.62364477     A.U. after   15 cycles
 SCF Done:  E(RB3LYP) =  -2359.62425730     A.U. after   15 cycles
 SCF Done:  E(RB3LYP) =  -2359.62458353     A.U. after   15 cycles
 SCF Done:  E(RB3LYP) =  -2359.62486443     A.U. after   12 cycles
 SCF Done:  E(RB3LYP) =  -2359.62489706     A.U. after   12 cycles
 SCF Done:  E(RB3LYP) =  -2359.62491607     A.U. after   10 cycles
 SCF Done:  E(RB3LYP) =  -2359.62492208     A.U. after   10 cycles
 SCF Done:  E(RB3LYP) =  -2359.62492749     A.U. after   10 cycles
 SCF Done:  E(RB3LYP) =  -2359.62496367     A.U. after    9 cycles
 SCF Done:  E(RB3LYP) =  -2359.62496253     A.U. after   11 cycles
 SCF Done:  E(RB3LYP) =  -2359.62497435     A.U. after   11 cycles
 SCF Done:  E(RB3LYP) =  -2359.62497836     A.U. after    9 cycles
 SCF Done:  E(RB3LYP) =  -2359.62497940     A.U. after    9 cycles
 SCF Done:  E(RB3LYP) =  -2359.62498014     A.U. after    9 cycles
 SCF Done:  E(RB3LYP) =  -2359.62498019     A.U. after    8 cycles
 SCF Done:  E(RB3LYP) =  -2359.62498040     A.U. after    9 cycles
 SCF Done:  E(RB3LYP) =  -2359.62498050     A.U. after    9 cycles
 SCF Done:  E(RB3LYP) =  -2359.62498046     A.U. after    8 cycles
 Optimization completed.
    -- Stationary point found.

                         Standard orientation:
 ---------------------------------------------------------------------
 Center     Atomic      Atomic             Coordinates (Angstroms)
 Number     Number       Type             X           Y           Z
 ---------------------------------------------------------------------
      1          6           0       -2.967500   -2.881122    0.497494
      2          6           0       -2.491102   -1.547527    0.277531
      3          6           0       -3.408563   -0.490453    0.054725
      4          6           0       -4.805556   -0.727269    0.044778
      5          6           0       -5.315932   -2.050058    0.269848
      6          6           0       -1.093541   -1.271057    0.333230
      7          6           0       -2.898998    0.843129   -0.180267
      8          6           0       -1.491865    1.082046   -0.179425
      9          6           0       -0.586064   -0.010052    0.146872
     10          6           0       -1.014642    2.380631   -0.572065
     11          6           0       -3.375808    3.214172   -0.710311
     12          6           0       -3.831436    1.883581   -0.435000
     13          6           0       -5.239531    1.611080   -0.435407
     14          6           0       -5.712424    0.354965   -0.202008
     15          1           0       -6.774859    0.145491   -0.205273
     16          1           0       -5.914491    2.434952   -0.631532
     17          1           0       -0.428733   -2.085001    0.594757
     18          7           0       -1.985275    3.391167   -0.751404
     19          7           0       -4.360987   -3.062429    0.488616
     20          8           0       -2.232936   -3.879652    0.697556
     21          8           0       -6.537605   -2.338526    0.278367
     22          8           0       -4.136519    4.190929   -0.924210
     23          8           0        0.180954    2.688920   -0.778723
     24          6           0       -1.470769    4.723817   -1.074046
     25          1           0       -0.671541    4.985719   -0.381921
     26          1           0       -1.063151    4.749169   -2.088049
     27          1           0       -2.292737    5.428161   -0.996223
     28          6           0       -4.836874   -4.427240    0.724790
     29          1           0       -4.498887   -5.092012   -0.072900
     30          1           0       -4.441642   -4.803102    1.669358
     31          1           0       -5.921386   -4.403633    0.751794
     32          6           0        0.861837    0.179614    0.377854
     33          6           0        1.495780    0.871620    1.376139
     34         16           0        2.022009   -0.652310   -0.627909
     35          6           0        2.911851    0.749592    1.332956
     36          1           0        0.958688    1.453988    2.110518
     37          6           0        3.394760   -0.048039    0.304790
     38          8           0        3.790488    1.323549    2.206144
     39          6           0        4.764867   -0.378724   -0.006792
     40          6           0        3.262064    2.176428    3.225275
     41          6           0        5.248205   -1.178276   -1.034163
     42         16           0        6.126843    0.232932    0.932792
     43          1           0        4.121400    2.538854    3.786323
     44          1           0        2.726155    3.023976    2.788983
     45          1           0        2.596643    1.623711    3.894428
     46          6           0        6.668606   -1.298277   -1.068634
     47          8           0        4.373146   -1.764686   -1.902633
     48          6           0        7.273532   -0.590724   -0.069277
     49          1           0        7.214089   -1.879283   -1.798178
     50          6           0        4.912080   -2.595761   -2.933589
     51          1           0        8.328491   -0.503011    0.140403
     52          1           0        5.458870   -3.443147   -2.510009
     53          1           0        4.057405   -2.961666   -3.499293
     54          1           0        5.569827   -2.025155   -3.595606
 ---------------------------------------------------------------------

 The electronic state is 1-A.
 Alpha  occ. eigenvalues --  -88.87625 -88.86814 -19.15917 -19.15864 -19.06716
 Alpha  occ. eigenvalues --  -19.06664 -19.06543 -19.06235 -14.34629 -14.34364
 Alpha  occ. eigenvalues --  -10.25148 -10.24956 -10.24912 -10.24901 -10.23507
 Alpha  occ. eigenvalues --  -10.23319 -10.22278 -10.22200 -10.20969 -10.20191
 Alpha  occ. eigenvalues --  -10.20178 -10.19793 -10.18540 -10.18408 -10.18142
 Alpha  occ. eigenvalues --  -10.18008 -10.17949 -10.17502 -10.16687 -10.15969
 Alpha  occ. eigenvalues --  -10.15717 -10.15437 -10.15350 -10.15345 -10.15278
 Alpha  occ. eigenvalues --  -10.15209  -7.96189  -7.95383  -5.92497  -5.92115
 Alpha  occ. eigenvalues --   -5.91759  -5.91700  -5.91316  -5.90935  -1.07209
 Alpha  occ. eigenvalues --   -1.07089  -1.02400  -1.02271  -0.99929  -0.99784
 Alpha  occ. eigenvalues --   -0.91129  -0.90859  -0.88928  -0.87384  -0.86108
 Alpha  occ. eigenvalues --   -0.81270  -0.79052  -0.77395  -0.75487  -0.74252
 Alpha  occ. eigenvalues --   -0.73561  -0.72789  -0.71610  -0.71256  -0.69178
 Alpha  occ. eigenvalues --   -0.68758  -0.67940  -0.66274  -0.62588  -0.61752
 Alpha  occ. eigenvalues --   -0.60937  -0.59851  -0.58936  -0.57267  -0.55035
 Alpha  occ. eigenvalues --   -0.54905  -0.53489  -0.53390  -0.52851  -0.50644
 Alpha  occ. eigenvalues --   -0.49383  -0.48344  -0.47396  -0.47080  -0.47010
 Alpha  occ. eigenvalues --   -0.46649  -0.46066  -0.45767  -0.45448  -0.44824
 Alpha  occ. eigenvalues --   -0.44441  -0.44302  -0.44240  -0.42531  -0.42122
 Alpha  occ. eigenvalues --   -0.41729  -0.41112  -0.40869  -0.40480  -0.40384
 Alpha  occ. eigenvalues --   -0.40159  -0.39989  -0.39138  -0.38276  -0.38186
 Alpha  occ. eigenvalues --   -0.38074  -0.37715  -0.37310  -0.36958  -0.36836
 Alpha  occ. eigenvalues --   -0.36470  -0.36187  -0.35132  -0.34851  -0.34460
 Alpha  occ. eigenvalues --   -0.33341  -0.33009  -0.32762  -0.32387  -0.31682
 Alpha  occ. eigenvalues --   -0.30196  -0.27796  -0.26690  -0.26313  -0.25804
 Alpha  occ. eigenvalues --   -0.25547  -0.24998  -0.24603  -0.24144  -0.23933
 Alpha  occ. eigenvalues --   -0.23670  -0.23079  -0.20859  -0.18178  -0.13194
 Alpha virt. eigenvalues --   -0.04420  -0.03340  -0.01322  -0.00411  -0.00035
 Alpha virt. eigenvalues --    0.00567   0.00642   0.01001   0.01175   0.01479
 Alpha virt. eigenvalues --    0.01833   0.02587   0.02651   0.03067   0.03171

 Mulliken charges:
               1
     1  C    0.405763
     2  C   -0.160837
     3  C    0.105726
     4  C    0.152384
     5  C    0.226919
     6  C   -0.533473
     7  C    0.206700
     8  C    0.031229
     9  C    0.461112
    10  C   -0.393022
    11  C    0.210051
    12  C    0.101388
    13  C   -0.528437
    14  C   -0.626832
    15  H    0.122058
    16  H    0.122793
    17  H    0.126998
    18  N   -0.143874
    19  N   -0.160384
    20  O   -0.527955
    21  O   -0.512501
    22  O   -0.517387
    23  O   -0.385708
    24  C   -0.204853
    25  H    0.161390
    26  H    0.161823
    27  H    0.167377
    28  C   -0.199802
    29  H    0.159979
    30  H    0.159591
    31  H    0.167829
    32  C    0.059716
    33  C   -0.492615
    34  S   -0.377227
    35  C   -0.222612
    36  H    0.136889
    37  C    0.501837
    38  O   -0.175213
    39  C    0.721053
    40  C   -0.233121
    41  C   -0.002284
    42  S   -0.248656
    43  H    0.171754
    44  H    0.161335
    45  H    0.158495
    46  C   -0.560219
    47  O   -0.171499
    48  C   -0.357890
    49  H    0.156963
    50  C   -0.249651
    51  H    0.183570
    52  H    0.156156
    53  H    0.170891
    54  H    0.156283
 Sum of Mulliken charges =  -2.00000

 Dipole moment (field-independent basis, Debye):
    X=             27.6574    Y=             -1.3065    Z=              1.6784  Tot=             27.7391
 Quadrupole moment (field-independent basis, Debye-Ang):
   XX=           -381.5335   YY=           -301.8324   ZZ=           -220.0338
   XY=             -8.6135   XZ=            -11.7829   YZ=             31.3170

 Normal termination of Gaussian 16 at Thu Oct 28 12:48:18 2021.
