 Gaussian 16, Revision C.01,
 Gaussian 16:  ES64L-G16RevC.01  3-Jul-2019

 ---------------------------------------------------------------
 # opt=modredundant b3lyp/6-311+g(d,p) scrf=(pcm, solvent=water)
 ---------------------------------------------------------------

 ----------
 NDI_40.pdb
 ----------
 Symbolic Z-matrix:
 Charge = -2 Multiplicity = 1

 SCF Done:  E(RB3LYP) =  -2359.60008318     A.U. after   16 cycles
 SCF Done:  E(RB3LYP) =  -2359.61324633     A.U. after   16 cycles
 SCF Done:  E(RB3LYP) =  -2359.62057672     A.U. after   14 cycles
 SCF Done:  E(RB3LYP) =  -2359.62239963     A.U. after   13 cycles
 SCF Done:  E(RB3LYP) =  -2359.62373282     A.U. after   16 cycles
 SCF Done:  E(RB3LYP) =  -2359.62462985     A.U. after   16 cycles
 SCF Done:  E(RB3LYP) =  -2359.62514283     A.U. after   14 cycles
 SCF Done:  E(RB3LYP) =  -2359.62526468     A.U. after   13 cycles
 SCF Done:  E(RB3LYP) =  -2359.62529821     A.U. after   11 cycles
 SCF Done:  E(RB3LYP) =  -2359.62531366     A.U. after   12 cycles
 SCF Done:  E(RB3LYP) =  -2359.62535233     A.U. after    9 cycles
 SCF Done:  E(RB3LYP) =  -2359.62535232     A.U. after   10 cycles
 SCF Done:  E(RB3LYP) =  -2359.62535228     A.U. after    9 cycles
 SCF Done:  E(RB3LYP) =  -2359.62535225     A.U. after    9 cycles
 SCF Done:  E(RB3LYP) =  -2359.62535234     A.U. after    8 cycles
 SCF Done:  E(RB3LYP) =  -2359.62535242     A.U. after    9 cycles
 SCF Done:  E(RB3LYP) =  -2359.62535251     A.U. after    8 cycles
 SCF Done:  E(RB3LYP) =  -2359.62535260     A.U. after    9 cycles
 SCF Done:  E(RB3LYP) =  -2359.62535268     A.U. after    9 cycles
 SCF Done:  E(RB3LYP) =  -2359.62535272     A.U. after    8 cycles
 Optimization completed.
    -- Stationary point found.

                         Standard orientation:
 ---------------------------------------------------------------------
 Center     Atomic      Atomic             Coordinates (Angstroms)
 Number     Number       Type             X           Y           Z
 ---------------------------------------------------------------------
      1          6           0       -2.791091   -2.959749    0.348769
      2          6           0       -2.393422   -1.596649    0.149752
      3          6           0       -3.370529   -0.571023    0.083175
      4          6           0       -4.748140   -0.867015    0.214627
      5          6           0       -5.179963   -2.222902    0.420298
      6          6           0       -1.012366   -1.259447    0.108093
      7          6           0       -2.938712    0.791129   -0.140281
      8          6           0       -1.549919    1.088999   -0.284895
      9          6           0       -0.567167    0.030202   -0.070404
     10          6           0       -1.183762    2.395818   -0.759950
     11          6           0       -3.563935    3.153636   -0.538836
     12          6           0       -3.933609    1.798064   -0.250282
     13          6           0       -5.320047    1.468415   -0.097849
     14          6           0       -5.717121    0.184673    0.129969
     15          1           0       -6.764311   -0.068460    0.238691
     16          1           0       -6.042807    2.270781   -0.179431
     17          1           0       -0.303226   -2.051751    0.312270
     18          7           0       -2.202524    3.377037   -0.783146
     19          7           0       -4.170542   -3.203968    0.463938
     20          8           0       -2.000216   -3.930582    0.427629
     21          8           0       -6.379918   -2.561596    0.553922
     22          8           0       -4.378570    4.106967   -0.606637
     23          8           0       -0.051732    2.737233   -1.170233
     24          6           0       -1.786698    4.721966   -1.187275
     25          1           0       -0.924919    5.035649   -0.598735
     26          1           0       -1.500366    4.738141   -2.241851
     27          1           0       -2.623981    5.393201   -1.025634
     28          6           0       -4.565766   -4.601044    0.657529
     29          1           0       -4.159224   -5.218810   -0.143965
     30          1           0       -4.179426   -4.978773    1.606551
     31          1           0       -5.649812   -4.646473    0.656135
     32          6           0        0.862669    0.289065    0.144758
     33          6           0        1.471622    1.277236    0.879677
     34         16           0        2.063830   -0.794347   -0.532421
     35          6           0        2.884418    1.154903    0.929151
     36          1           0        0.915223    2.060549    1.370581
     37          6           0        3.402812    0.079841    0.219300
     38          8           0        3.734006    1.982236    1.606128
     39          6           0        4.780837   -0.318727    0.072544
     40          6           0        3.167874    3.078185    2.329600
     41          6           0        5.301343   -1.385839   -0.649190
     42         16           0        6.108617    0.554859    0.839638
     43          1           0        4.007460    3.602026    2.782752
     44          1           0        2.632399    3.756658    1.659757
     45          1           0        2.492301    2.724141    3.113424
     46          6           0        6.720897   -1.501350   -0.589081
     47          8           0        4.458863   -2.211221   -1.337584
     48          6           0        7.290018   -0.523803    0.176557
     49          1           0        7.291699   -2.269939   -1.089924
     50          6           0        5.035997   -3.302408   -2.058440
     51          1           0        8.336360   -0.369744    0.390956
     52          1           0        5.565137   -3.983015   -1.385106
     53          1           0        4.203369   -3.826840   -2.523358
     54          1           0        5.719531   -2.944364   -2.833824
 ---------------------------------------------------------------------

 The electronic state is 1-A.
 Alpha  occ. eigenvalues --  -88.87573 -88.86667 -19.15872 -19.15810 -19.06906
 Alpha  occ. eigenvalues --  -19.06787 -19.06617 -19.06206 -14.34721 -14.34355
 Alpha  occ. eigenvalues --  -10.25340 -10.25084 -10.24992 -10.24875 -10.23443
 Alpha  occ. eigenvalues --  -10.23240 -10.22259 -10.22161 -10.20944 -10.20106
 Alpha  occ. eigenvalues --  -10.20066 -10.19731 -10.18598 -10.18421 -10.18178
 Alpha  occ. eigenvalues --  -10.17973 -10.17966 -10.17591 -10.16509 -10.15897
 Alpha  occ. eigenvalues --  -10.15850 -10.15594 -10.15426 -10.15418 -10.15358
 Alpha  occ. eigenvalues --  -10.15277  -7.96138  -7.95239  -5.92446  -5.92064
 Alpha  occ. eigenvalues --   -5.91706  -5.91559  -5.91179  -5.90780  -1.07159
 Alpha  occ. eigenvalues --   -1.07033  -1.02564  -1.02299  -1.00122  -0.99827
 Alpha  occ. eigenvalues --   -0.91257  -0.90877  -0.88848  -0.87323  -0.86126
 Alpha  occ. eigenvalues --   -0.81333  -0.79111  -0.77359  -0.75472  -0.74268
 Alpha  occ. eigenvalues --   -0.73474  -0.72890  -0.71594  -0.71238  -0.69145
 Alpha  occ. eigenvalues --   -0.68801  -0.67954  -0.66223  -0.62679  -0.61788
 Alpha  occ. eigenvalues --   -0.60998  -0.59952  -0.58829  -0.57248  -0.55008
 Alpha  occ. eigenvalues --   -0.54863  -0.53551  -0.53314  -0.52889  -0.50735
 Alpha  occ. eigenvalues --   -0.49517  -0.48154  -0.47363  -0.47039  -0.46937
 Alpha  occ. eigenvalues --   -0.46680  -0.46127  -0.45765  -0.45474  -0.44894
 Alpha  occ. eigenvalues --   -0.44455  -0.44298  -0.44190  -0.42605  -0.41962
 Alpha  occ. eigenvalues --   -0.41749  -0.41104  -0.40840  -0.40495  -0.40438
 Alpha  occ. eigenvalues --   -0.40211  -0.40015  -0.39090  -0.38343  -0.38261
 Alpha  occ. eigenvalues --   -0.38191  -0.37695  -0.37405  -0.36964  -0.36907
 Alpha  occ. eigenvalues --   -0.36407  -0.36145  -0.35063  -0.34953  -0.34489
 Alpha  occ. eigenvalues --   -0.33347  -0.32952  -0.32761  -0.32559  -0.31681
 Alpha  occ. eigenvalues --   -0.30316  -0.27885  -0.26707  -0.26417  -0.25821
 Alpha  occ. eigenvalues --   -0.25652  -0.25031  -0.24685  -0.24255  -0.23848
 Alpha  occ. eigenvalues --   -0.23751  -0.22870  -0.20916  -0.18042  -0.13229
 Alpha virt. eigenvalues --   -0.04849  -0.03351  -0.01392  -0.00461  -0.00038
 Alpha virt. eigenvalues --    0.00610   0.00893   0.00961   0.01460   0.01623
 Alpha virt. eigenvalues --    0.01999   0.02591   0.02710   0.03109   0.03198

 Mulliken charges:
               1
     1  C    0.317938
     2  C   -0.206966
     3  C    0.074865
     4  C    0.183079
     5  C    0.209809
     6  C   -0.413231
     7  C    0.217560
     8  C    0.248688
     9  C    0.392805
    10  C   -0.516706
    11  C    0.239020
    12  C    0.082351
    13  C   -0.521721
    14  C   -0.599890
    15  H    0.123136
    16  H    0.123652
    17  H    0.135446
    18  N   -0.089521
    19  N   -0.155627
    20  O   -0.526902
    21  O   -0.505619
    22  O   -0.514751
    23  O   -0.421155
    24  C   -0.181482
    25  H    0.160118
    26  H    0.161086
    27  H    0.167330
    28  C   -0.200597
    29  H    0.159046
    30  H    0.161815
    31  H    0.167836
    32  C    0.057448
    33  C   -0.473840
    34  S   -0.567655
    35  C   -0.349197
    36  H    0.144773
    37  C    0.626893
    38  O   -0.169941
    39  C    0.767034
    40  C   -0.234500
    41  C    0.008357
    42  S   -0.236397
    43  H    0.172093
    44  H    0.159549
    45  H    0.158886
    46  C   -0.597296
    47  O   -0.168973
    48  C   -0.341119
    49  H    0.156767
    50  C   -0.250495
    51  H    0.183425
    52  H    0.156240
    53  H    0.170940
    54  H    0.155593
 Sum of Mulliken charges =  -2.00000

 Dipole moment (field-independent basis, Debye):
    X=             26.9217    Y=             -0.8535    Z=              1.6810  Tot=             26.9877
 Quadrupole moment (field-independent basis, Debye-Ang):
   XX=           -378.5535   YY=           -293.0812   ZZ=           -230.0224
   XY=            -10.1536   XZ=             -1.8409   YZ=             27.7932

 Normal termination of Gaussian 16 at Thu Oct 28 12:10:42 2021.
