 Gaussian 16, Revision C.01,
 Gaussian 16:  ES64L-G16RevC.01  3-Jul-2019

 ---------------------------------------------------------------
 # opt=modredundant b3lyp/6-311+g(d,p) scrf=(pcm, solvent=water)
 ---------------------------------------------------------------

 ------------
 NDI_-115.pdb
 ------------
 Symbolic Z-matrix:
 Charge = -2 Multiplicity = 1

 SCF Done:  E(RB3LYP) =  -2359.60144861     A.U. after   17 cycles
 SCF Done:  E(RB3LYP) =  -2359.62043367     A.U. after   15 cycles
 SCF Done:  E(RB3LYP) =  -2359.62406116     A.U. after   16 cycles
 SCF Done:  E(RB3LYP) =  -2359.62438512     A.U. after   14 cycles
 SCF Done:  E(RB3LYP) =  -2359.62478265     A.U. after   13 cycles
 SCF Done:  E(RB3LYP) =  -2359.62491846     A.U. after   13 cycles
 SCF Done:  E(RB3LYP) =  -2359.62494583     A.U. after   13 cycles
 SCF Done:  E(RB3LYP) =  -2359.62496114     A.U. after   11 cycles
 SCF Done:  E(RB3LYP) =  -2359.62496698     A.U. after   11 cycles
 SCF Done:  E(RB3LYP) =  -2359.62496987     A.U. after   11 cycles
 SCF Done:  E(RB3LYP) =  -2359.62497640     A.U. after   11 cycles
 SCF Done:  E(RB3LYP) =  -2359.62497892     A.U. after   11 cycles
 SCF Done:  E(RB3LYP) =  -2359.62498080     A.U. after   10 cycles
 SCF Done:  E(RB3LYP) =  -2359.62498169     A.U. after   10 cycles
 SCF Done:  E(RB3LYP) =  -2359.62498241     A.U. after   10 cycles
 SCF Done:  E(RB3LYP) =  -2359.62498318     A.U. after   10 cycles
 SCF Done:  E(RB3LYP) =  -2359.62498360     A.U. after    9 cycles
 SCF Done:  E(RB3LYP) =  -2359.62498386     A.U. after    8 cycles
 SCF Done:  E(RB3LYP) =  -2359.62498384     A.U. after    8 cycles
 SCF Done:  E(RB3LYP) =  -2359.62498381     A.U. after    9 cycles
 Optimization completed.
    -- Stationary point found.

                         Standard orientation:
 ---------------------------------------------------------------------
 Center     Atomic      Atomic             Coordinates (Angstroms)
 Number     Number       Type             X           Y           Z
 ---------------------------------------------------------------------
      1          6           0       -3.395720   -2.745587    0.326167
      2          6           0       -2.726254   -1.502744    0.080897
      3          6           0       -3.445434   -0.282981    0.130720
      4          6           0       -4.831464   -0.265323    0.426917
      5          6           0       -5.531954   -1.492379    0.678910
      6          6           0       -1.323011   -1.485883   -0.173408
      7          6           0       -2.746941    0.954959   -0.140312
      8          6           0       -1.353700    0.938625   -0.451262
      9          6           0       -0.632891   -0.325916   -0.415322
     10          6           0       -0.724700    2.166563   -0.855898
     11          6           0       -2.852975    3.414669   -0.406102
     12          6           0       -3.489209    2.165404   -0.109975
     13          6           0       -4.889058    2.149922    0.203318
     14          6           0       -5.538508    0.981224    0.463818
     15          1           0       -6.596414    0.967240    0.695081
     16          1           0       -5.414500    3.096757    0.218792
     17          1           0       -0.789430   -2.427062   -0.129047
     18          7           0       -1.499788    3.343583   -0.769407
     19          7           0       -4.770743   -2.675979    0.607153
     20          8           0       -2.842075   -3.872794    0.306229
     21          8           0       -6.756456   -1.559304    0.948259
     22          8           0       -3.434151    4.528062   -0.371457
     23          8           0        0.446102    2.280147   -1.285447
     24          6           0       -0.819961    4.585328   -1.144885
     25          1           0        0.097600    4.698533   -0.567116
     26          1           0       -0.553352    4.571653   -2.204100
     27          1           0       -1.497547    5.409263   -0.946172
     28          6           0       -5.448078   -3.952485    0.844912
     29          1           0       -5.312325   -4.614168   -0.011690
     30          1           0       -5.031454   -4.446626    1.724875
     31          1           0       -6.502506   -3.747852    0.998844
     32          6           0        0.833218   -0.452296   -0.573230
     33          6           0        1.523085   -1.068098   -1.583693
     34         16           0        1.927189    0.081222    0.682912
     35          6           0        2.932445   -1.092248   -1.372731
     36          1           0        1.032552   -1.470599   -2.458238
     37          6           0        3.347822   -0.504804   -0.188432
     38          8           0        3.857799   -1.628613   -2.221089
     39          6           0        4.693307   -0.362600    0.317378
     40          6           0        3.392168   -2.200074   -3.446717
     41          6           0        5.112421    0.211366    1.510255
     42         16           0        6.105637   -0.934001   -0.571733
     43          1           0        4.279776   -2.557188   -3.965531
     44          1           0        2.717647   -3.039875   -3.257609
     45          1           0        2.885885   -1.451031   -4.062056
     46          6           0        6.524862    0.195911    1.706494
     47          8           0        4.190274    0.725893    2.374830
     48          6           0        7.186745   -0.390074    0.665577
     49          1           0        7.024223    0.598307    2.575989
     50          6           0        4.667530    1.314576    3.587300
     51          1           0        8.249616   -0.537735    0.550910
     52          1           0        5.323032    2.165339    3.380092
     53          1           0        3.783197    1.659305    4.119715
     54          1           0        5.198090    0.579514    4.199404
 ---------------------------------------------------------------------

 The electronic state is 1-A.
 Alpha  occ. eigenvalues --  -88.87659 -88.86549 -19.15930 -19.15894 -19.06678
 Alpha  occ. eigenvalues --  -19.06636 -19.06531 -19.06235 -14.34610 -14.34368
 Alpha  occ. eigenvalues --  -10.25112 -10.24924 -10.24909 -10.24886 -10.23568
 Alpha  occ. eigenvalues --  -10.23306 -10.22285 -10.22222 -10.20982 -10.20271
 Alpha  occ. eigenvalues --  -10.20252 -10.19841 -10.18531 -10.18386 -10.18139
 Alpha  occ. eigenvalues --  -10.18030 -10.17941 -10.17422 -10.16860 -10.15988
 Alpha  occ. eigenvalues --  -10.15640 -10.15409 -10.15332 -10.15307 -10.15263
 Alpha  occ. eigenvalues --  -10.15196  -7.96223  -7.95128  -5.92531  -5.92148
 Alpha  occ. eigenvalues --   -5.91794  -5.91449  -5.91066  -5.90668  -1.07235
 Alpha  occ. eigenvalues --   -1.07110  -1.02361  -1.02262  -0.99884  -0.99776
 Alpha  occ. eigenvalues --   -0.91101  -0.90853  -0.88923  -0.87349  -0.86083
 Alpha  occ. eigenvalues --   -0.81246  -0.79029  -0.77429  -0.75458  -0.74200
 Alpha  occ. eigenvalues --   -0.73668  -0.72683  -0.71639  -0.71222  -0.69172
 Alpha  occ. eigenvalues --   -0.68729  -0.67946  -0.66313  -0.62521  -0.61760
 Alpha  occ. eigenvalues --   -0.60923  -0.59765  -0.59002  -0.57277  -0.55044
 Alpha  occ. eigenvalues --   -0.54914  -0.53500  -0.53408  -0.52828  -0.50556
 Alpha  occ. eigenvalues --   -0.49437  -0.48260  -0.47411  -0.47108  -0.47086
 Alpha  occ. eigenvalues --   -0.46615  -0.46055  -0.45771  -0.45441  -0.44799
 Alpha  occ. eigenvalues --   -0.44450  -0.44341  -0.44175  -0.42652  -0.42204
 Alpha  occ. eigenvalues --   -0.41556  -0.41109  -0.40912  -0.40526  -0.40347
 Alpha  occ. eigenvalues --   -0.40127  -0.39987  -0.39208  -0.38237  -0.38209
 Alpha  occ. eigenvalues --   -0.37882  -0.37682  -0.37397  -0.36904  -0.36771
 Alpha  occ. eigenvalues --   -0.36432  -0.36223  -0.35124  -0.34765  -0.34513
 Alpha  occ. eigenvalues --   -0.33320  -0.33043  -0.32713  -0.32382  -0.31633
 Alpha  occ. eigenvalues --   -0.30042  -0.27765  -0.26694  -0.26287  -0.25748
 Alpha  occ. eigenvalues --   -0.25555  -0.25039  -0.24432  -0.24136  -0.23990
 Alpha  occ. eigenvalues --   -0.23561  -0.23252  -0.20846  -0.18239  -0.13188
 Alpha virt. eigenvalues --   -0.04341  -0.03439  -0.01150  -0.00406  -0.00056
 Alpha virt. eigenvalues --    0.00478   0.00586   0.00976   0.01149   0.01448
 Alpha virt. eigenvalues --    0.01786   0.02564   0.02718   0.03086   0.03101

 Mulliken charges:
               1
     1  C    0.395512
     2  C   -0.120830
     3  C    0.088291
     4  C    0.208546
     5  C    0.244941
     6  C   -0.635443
     7  C    0.179429
     8  C   -0.107969
     9  C    0.321750
    10  C   -0.217339
    11  C    0.308422
    12  C    0.179760
    13  C   -0.577471
    14  C   -0.644234
    15  H    0.122347
    16  H    0.123391
    17  H    0.119705
    18  N   -0.134278
    19  N   -0.158570
    20  O   -0.527185
    21  O   -0.514208
    22  O   -0.516332
    23  O   -0.418274
    24  C   -0.192579
    25  H    0.161708
    26  H    0.161138
    27  H    0.168719
    28  C   -0.201931
    29  H    0.158910
    30  H    0.160583
    31  H    0.168685
    32  C    0.232875
    33  C   -0.661845
    34  S   -0.387379
    35  C   -0.215635
    36  H    0.136897
    37  C    0.367775
    38  O   -0.159164
    39  C    0.849969
    40  C   -0.256347
    41  C   -0.001299
    42  S   -0.229626
    43  H    0.172445
    44  H    0.160703
    45  H    0.161667
    46  C   -0.529530
    47  O   -0.173758
    48  C   -0.349771
    49  H    0.157306
    50  C   -0.248032
    51  H    0.184052
    52  H    0.156658
    53  H    0.171063
    54  H    0.155785
 Sum of Mulliken charges =  -2.00000

 Dipole moment (field-independent basis, Debye):
    X=             27.6086    Y=             -2.9580    Z=              0.5488  Tot=             27.7720
 Quadrupole moment (field-independent basis, Debye-Ang):
   XX=           -377.9769   YY=           -308.3795   ZZ=           -214.8331
   XY=              7.0136   XZ=             24.4978   YZ=             22.4577

 Normal termination of Gaussian 16 at Thu Oct 28 09:54:00 2021.
