 Gaussian 16, Revision C.01,
 Gaussian 16:  ES64L-G16RevC.01  3-Jul-2019

 ---------------------------------------------------------------
 # opt=modredundant b3lyp/6-311+g(d,p) scrf=(pcm, solvent=water)
 ---------------------------------------------------------------

 ----------
 NDI_-5.pdb
 ----------
 Symbolic Z-matrix:
 Charge = -2 Multiplicity = 1

 SCF Done:  E(RB3LYP) =  -2359.58673380     A.U. after   16 cycles
 SCF Done:  E(RB3LYP) =  -2359.59134074     A.U. after   17 cycles
 SCF Done:  E(RB3LYP) =  -2359.60190534     A.U. after   14 cycles
 SCF Done:  E(RB3LYP) =  -2359.61229031     A.U. after   14 cycles
 SCF Done:  E(RB3LYP) =  -2359.61803692     A.U. after   16 cycles
 SCF Done:  E(RB3LYP) =  -2359.61991820     A.U. after   16 cycles
 SCF Done:  E(RB3LYP) =  -2359.62052819     A.U. after   13 cycles
 SCF Done:  E(RB3LYP) =  -2359.62076521     A.U. after   13 cycles
 SCF Done:  E(RB3LYP) =  -2359.62116665     A.U. after   13 cycles
 SCF Done:  E(RB3LYP) =  -2359.62124236     A.U. after   12 cycles
 SCF Done:  E(RB3LYP) =  -2359.62134322     A.U. after    9 cycles
 SCF Done:  E(RB3LYP) =  -2359.62134390     A.U. after    9 cycles
 SCF Done:  E(RB3LYP) =  -2359.62134530     A.U. after   10 cycles
 SCF Done:  E(RB3LYP) =  -2359.62134620     A.U. after   10 cycles
 SCF Done:  E(RB3LYP) =  -2359.62134640     A.U. after    9 cycles
 SCF Done:  E(RB3LYP) =  -2359.62134665     A.U. after   10 cycles
 SCF Done:  E(RB3LYP) =  -2359.62134671     A.U. after    8 cycles
 SCF Done:  E(RB3LYP) =  -2359.62134677     A.U. after    8 cycles
 SCF Done:  E(RB3LYP) =  -2359.62134681     A.U. after    7 cycles
 SCF Done:  E(RB3LYP) =  -2359.62134684     A.U. after    8 cycles
 Optimization completed.
    -- Stationary point found.

                         Standard orientation:
 ---------------------------------------------------------------------
 Center     Atomic      Atomic             Coordinates (Angstroms)
 Number     Number       Type             X           Y           Z
 ---------------------------------------------------------------------
      1          6           0       -2.627111   -3.014994    0.082343
      2          6           0       -2.306054   -1.617222    0.132775
      3          6           0       -3.316597   -0.643993   -0.076484
      4          6           0       -4.650379   -1.025330   -0.342706
      5          6           0       -5.004814   -2.420075   -0.408528
      6          6           0       -0.956736   -1.208652    0.271959
      7          6           0       -2.959437    0.753338    0.017965
      8          6           0       -1.614740    1.136818    0.311982
      9          6           0       -0.558487    0.111296    0.329557
     10          6           0       -1.403389    2.485719    0.756796
     11          6           0       -3.722038    3.109582    0.045918
     12          6           0       -3.997797    1.711982   -0.129267
     13          6           0       -5.337120    1.295698   -0.417459
     14          6           0       -5.657968   -0.025203   -0.525426
     15          1           0       -6.672090   -0.343092   -0.732680
     16          1           0       -6.091758    2.064256   -0.530982
     17          1           0       -0.218457   -2.000518    0.236096
     18          7           0       -2.431245    3.421215    0.483609
     19          7           0       -3.966876   -3.344518   -0.185664
     20          8           0       -1.802645   -3.943356    0.252483
     21          8           0       -6.163556   -2.832827   -0.642270
     22          8           0       -4.562821    4.024942   -0.131508
     23          8           0       -0.402064    2.906512    1.381923
     24          6           0       -2.139000    4.819355    0.807354
     25          1           0       -2.221173    5.000429    1.883127
     26          1           0       -1.122597    5.056746    0.499870
     27          1           0       -2.857572    5.443972    0.285722
     28          6           0       -4.282734   -4.774130   -0.235958
     29          1           0       -3.693490   -5.263397   -1.013240
     30          1           0       -4.044749   -5.246552    0.718551
     31          1           0       -5.341485   -4.876232   -0.449929
     32          6           0        0.863460    0.392938    0.107978
     33          6           0        1.503509    1.563808   -0.239025
     34         16           0        2.066357   -0.886332    0.334937
     35          6           0        2.910053    1.436358   -0.369689
     36          1           0        0.976149    2.489161   -0.388419
     37          6           0        3.413441    0.175385   -0.091429
     38          8           0        3.767816    2.435524   -0.731900
     39          6           0        4.781187   -0.275322   -0.129185
     40          6           0        3.215313    3.719534   -1.033995
     41          6           0        5.290167   -1.536575    0.159521
     42         16           0        6.115506    0.790107   -0.578564
     43          1           0        4.060042    4.351853   -1.301156
     44          1           0        2.521806    3.660101   -1.877475
     45          1           0        2.703313    4.141784   -0.165002
     46          6           0        6.704646   -1.646196    0.022783
     47          8           0        4.443529   -2.538345    0.539265
     48          6           0        7.282505   -0.471962   -0.368581
     49          1           0        7.266117   -2.550840    0.206513
     50          6           0        5.010187   -3.821083    0.816032
     51          1           0        8.327720   -0.270114   -0.545630
     52          1           0        5.718304   -3.767637    1.648144
     53          1           0        4.175571   -4.463092    1.091093
     54          1           0        5.508903   -4.230163   -0.067495
 ---------------------------------------------------------------------

 The electronic state is 1-A.
 Alpha  occ. eigenvalues --  -88.87558 -88.86351 -19.15849 -19.15750 -19.07172
 Alpha  occ. eigenvalues --  -19.06990 -19.06663 -19.06282 -14.34856 -14.34369
 Alpha  occ. eigenvalues --  -10.25609 -10.25291 -10.25010 -10.24901 -10.23453
 Alpha  occ. eigenvalues --  -10.23106 -10.22247 -10.22109 -10.20950 -10.20194
 Alpha  occ. eigenvalues --  -10.20077 -10.19723 -10.18678 -10.18495 -10.18240
 Alpha  occ. eigenvalues --  -10.17990 -10.17962 -10.17738 -10.16220 -10.16067
 Alpha  occ. eigenvalues --  -10.15910 -10.15810 -10.15548 -10.15523 -10.15472
 Alpha  occ. eigenvalues --  -10.15352  -7.96122  -7.94936  -5.92431  -5.92048
 Alpha  occ. eigenvalues --   -5.91689  -5.91266  -5.90885  -5.90455  -1.07140
 Alpha  occ. eigenvalues --   -1.06969  -1.02821  -1.02362  -1.00414  -0.99881
 Alpha  occ. eigenvalues --   -0.91454  -0.90940  -0.88768  -0.87219  -0.86144
 Alpha  occ. eigenvalues --   -0.81393  -0.79194  -0.77346  -0.75470  -0.74312
 Alpha  occ. eigenvalues --   -0.73354  -0.72998  -0.71621  -0.71220  -0.69099
 Alpha  occ. eigenvalues --   -0.68878  -0.68009  -0.66189  -0.62814  -0.61856
 Alpha  occ. eigenvalues --   -0.61089  -0.60062  -0.58761  -0.57276  -0.54985
 Alpha  occ. eigenvalues --   -0.54824  -0.53677  -0.53248  -0.52948  -0.50864
 Alpha  occ. eigenvalues --   -0.49660  -0.47997  -0.47340  -0.46997  -0.46880
 Alpha  occ. eigenvalues --   -0.46710  -0.46252  -0.45819  -0.45526  -0.45008
 Alpha  occ. eigenvalues --   -0.44511  -0.44325  -0.44093  -0.42756  -0.41934
 Alpha  occ. eigenvalues --   -0.41785  -0.41062  -0.40781  -0.40626  -0.40466
 Alpha  occ. eigenvalues --   -0.40201  -0.40069  -0.39110  -0.38497  -0.38331
 Alpha  occ. eigenvalues --   -0.38198  -0.37814  -0.37559  -0.37162  -0.36918
 Alpha  occ. eigenvalues --   -0.36247  -0.35996  -0.35266  -0.34780  -0.34479
 Alpha  occ. eigenvalues --   -0.33543  -0.32953  -0.32909  -0.32653  -0.31278
 Alpha  occ. eigenvalues --   -0.30352  -0.28043  -0.26768  -0.26587  -0.25900
 Alpha  occ. eigenvalues --   -0.25777  -0.25035  -0.24679  -0.24459  -0.24004
 Alpha  occ. eigenvalues --   -0.23557  -0.22990  -0.20978  -0.17940  -0.13278
 Alpha virt. eigenvalues --   -0.05443  -0.03431  -0.01433  -0.00511  -0.00068
 Alpha virt. eigenvalues --    0.00635   0.00795   0.01046   0.01682   0.01987
 Alpha virt. eigenvalues --    0.02248   0.02545   0.02996   0.03175   0.03238

 Mulliken charges:
               1
     1  C    0.221478
     2  C   -0.040148
     3  C    0.236494
     4  C    0.204521
     5  C    0.207630
     6  C    0.075295
     7  C    0.229701
     8  C    0.343768
     9  C   -0.052985
    10  C   -0.872647
    11  C    0.218528
    12  C    0.141102
    13  C   -0.521655
    14  C   -0.601484
    15  H    0.123899
    16  H    0.125019
    17  H    0.129200
    18  N   -0.016508
    19  N   -0.149308
    20  O   -0.521440
    21  O   -0.497602
    22  O   -0.518696
    23  O   -0.468556
    24  C   -0.170527
    25  H    0.162445
    26  H    0.162841
    27  H    0.166082
    28  C   -0.197757
    29  H    0.162033
    30  H    0.160548
    31  H    0.167819
    32  C   -0.445638
    33  C   -0.173050
    34  S   -0.622435
    35  C   -0.329327
    36  H    0.159396
    37  C    0.597449
    38  O   -0.167174
    39  C    0.874704
    40  C   -0.236286
    41  C    0.029130
    42  S   -0.213166
    43  H    0.172460
    44  H    0.156999
    45  H    0.159009
    46  C   -0.606564
    47  O   -0.168222
    48  C   -0.369487
    49  H    0.156761
    50  C   -0.249667
    51  H    0.183979
    52  H    0.155093
    53  H    0.171174
    54  H    0.155772
 Sum of Mulliken charges =  -2.00000

 Dipole moment (field-independent basis, Debye):
    X=             26.2705    Y=             -0.8598    Z=             -1.7768  Tot=             26.3446
 Quadrupole moment (field-independent basis, Debye-Ang):
   XX=           -372.1805   YY=           -285.9548   ZZ=           -239.7679
   XY=            -10.0402   XZ=            -10.1452   YZ=            -11.9292

 Normal termination of Gaussian 16 at Thu Oct 28 12:42:32 2021.
