 Gaussian 16, Revision C.01,
 Gaussian 16:  ES64L-G16RevC.01  3-Jul-2019

 ---------------------------------------------------------------
 # opt=modredundant b3lyp/6-311+g(d,p) scrf=(pcm, solvent=water)
 ---------------------------------------------------------------

 ----------
 NDI_25.pdb
 ----------
 Symbolic Z-matrix:
 Charge = -2 Multiplicity = 1

 SCF Done:  E(RB3LYP) =  -2359.59166750     A.U. after   16 cycles
 SCF Done:  E(RB3LYP) =  -2359.59934040     A.U. after   18 cycles
 SCF Done:  E(RB3LYP) =  -2359.61499088     A.U. after   16 cycles
 SCF Done:  E(RB3LYP) =  -2359.61746338     A.U. after   14 cycles
 SCF Done:  E(RB3LYP) =  -2359.61863243     A.U. after   15 cycles
 SCF Done:  E(RB3LYP) =  -2359.61931763     A.U. after   15 cycles
 SCF Done:  E(RB3LYP) =  -2359.62020247     A.U. after   17 cycles
 SCF Done:  E(RB3LYP) =  -2359.62162173     A.U. after   14 cycles
 SCF Done:  E(RB3LYP) =  -2359.62364687     A.U. after   17 cycles
 SCF Done:  E(RB3LYP) =  -2359.62362688     A.U. after   14 cycles
 SCF Done:  E(RB3LYP) =  -2359.62428778     A.U. after   11 cycles
 SCF Done:  E(RB3LYP) =  -2359.62428967     A.U. after   11 cycles
 SCF Done:  E(RB3LYP) =  -2359.62428991     A.U. after   10 cycles
 SCF Done:  E(RB3LYP) =  -2359.62428998     A.U. after   11 cycles
 SCF Done:  E(RB3LYP) =  -2359.62429003     A.U. after   10 cycles
 SCF Done:  E(RB3LYP) =  -2359.62429000     A.U. after    9 cycles
 SCF Done:  E(RB3LYP) =  -2359.62428998     A.U. after   10 cycles
 SCF Done:  E(RB3LYP) =  -2359.62428998     A.U. after    8 cycles
 SCF Done:  E(RB3LYP) =  -2359.62428998     A.U. after    8 cycles
 SCF Done:  E(RB3LYP) =  -2359.62428998     A.U. after    8 cycles
 Optimization completed.
    -- Stationary point found.

                         Standard orientation:
 ---------------------------------------------------------------------
 Center     Atomic      Atomic             Coordinates (Angstroms)
 Number     Number       Type             X           Y           Z
 ---------------------------------------------------------------------
      1          6           0       -2.717291   -2.995975    0.193192
      2          6           0       -2.354107   -1.616978    0.038710
      3          6           0       -3.349435   -0.607370    0.082947
      4          6           0       -4.710773   -0.934681    0.280202
      5          6           0       -5.108256   -2.308154    0.442944
      6          6           0       -0.984830   -1.252146   -0.049231
      7          6           0       -2.950498    0.770542   -0.098363
      8          6           0       -1.577688    1.099308   -0.314798
      9          6           0       -0.561475    0.051284   -0.193826
     10          6           0       -1.275243    2.420294   -0.793612
     11          6           0       -3.637194    3.135628   -0.356896
     12          6           0       -3.966837    1.762257   -0.103291
     13          6           0       -5.335621    1.401014    0.116006
     14          6           0       -5.699399    0.100915    0.305468
     15          1           0       -6.734276   -0.176067    0.462901
     16          1           0       -6.074071    2.193264    0.114795
     17          1           0       -0.260557   -2.043417    0.098504
     18          7           0       -2.301632    3.389775   -0.689557
     19          7           0       -4.083196   -3.271417    0.379174
     20          8           0       -1.907656   -3.953398    0.176874
     21          8           0       -6.292304   -2.673950    0.628664
     22          8           0       -4.466497    4.077950   -0.326223
     23          8           0       -0.194598    2.785746   -1.309000
     24          6           0       -1.937795    4.756210   -1.070669
     25          1           0       -0.983011    5.019275   -0.618570
     26          1           0       -1.836341    4.846021   -2.155785
     27          1           0       -2.723769    5.421314   -0.727088
     28          6           0       -4.443760   -4.683307    0.529813
     29          1           0       -4.078400   -5.255301   -0.323750
     30          1           0       -3.993297   -5.097665    1.434243
     31          1           0       -5.524902   -4.748930    0.593110
     32          6           0        0.861989    0.325776    0.023973
     33          6           0        1.471478    1.418625    0.596162
     34         16           0        2.076639   -0.847489   -0.473836
     35          6           0        2.881944    1.300858    0.686410
     36          1           0        0.917232    2.272647    0.949195
     37          6           0        3.406824    0.129650    0.158149
     38          8           0        3.725145    2.223116    1.237174
     39          6           0        4.783928   -0.291621    0.101764
     40          6           0        3.149859    3.397581    1.815681
     41          6           0        5.313521   -1.455659   -0.442562
     42         16           0        6.100240    0.679329    0.765648
     43          1           0        3.985152    3.981822    2.197336
     44          1           0        2.608821    3.980946    1.065642
     45          1           0        2.477123    3.140495    2.638753
     46          6           0        6.730117   -1.567039   -0.330543
     47          8           0        4.481534   -2.370902   -1.021401
     48          6           0        7.288604   -0.490242    0.297509
     49          1           0        7.306627   -2.403318   -0.698843
     50          6           0        5.069404   -3.550088   -1.575496
     51          1           0        8.330829   -0.310610    0.512068
     52          1           0        5.585117   -4.132094   -0.806098
     53          1           0        4.244238   -4.133727   -1.979135
     54          1           0        5.767454   -3.301184   -2.380166
 ---------------------------------------------------------------------

 The electronic state is 1-A.
 Alpha  occ. eigenvalues --  -88.87555 -88.86525 -19.15851 -19.15780 -19.07025
 Alpha  occ. eigenvalues --  -19.06872 -19.06636 -19.06220 -14.34780 -14.34349
 Alpha  occ. eigenvalues --  -10.25459 -10.25173 -10.24998 -10.24867 -10.23429
 Alpha  occ. eigenvalues --  -10.23181 -10.22248 -10.22138 -10.20935 -10.20080
 Alpha  occ. eigenvalues --  -10.20065 -10.19713 -10.18636 -10.18450 -10.18197
 Alpha  occ. eigenvalues --  -10.17971 -10.17959 -10.17637 -10.16405 -10.15943
 Alpha  occ. eigenvalues --  -10.15872 -10.15686 -10.15466 -10.15463 -10.15402
 Alpha  occ. eigenvalues --  -10.15306  -7.96119  -7.95101  -5.92428  -5.92045
 Alpha  occ. eigenvalues --   -5.91687  -5.91425  -5.91046  -5.90632  -1.07139
 Alpha  occ. eigenvalues --   -1.07004  -1.02674  -1.02320  -1.00250  -0.99845
 Alpha  occ. eigenvalues --   -0.91339  -0.90896  -0.88801  -0.87272  -0.86129
 Alpha  occ. eigenvalues --   -0.81358  -0.79144  -0.77344  -0.75464  -0.74280
 Alpha  occ. eigenvalues --   -0.73420  -0.72940  -0.71598  -0.71222  -0.69121
 Alpha  occ. eigenvalues --   -0.68833  -0.67966  -0.66199  -0.62732  -0.61814
 Alpha  occ. eigenvalues --   -0.61035  -0.59999  -0.58782  -0.57249  -0.54991
 Alpha  occ. eigenvalues --   -0.54837  -0.53602  -0.53271  -0.52911  -0.50784
 Alpha  occ. eigenvalues --   -0.49588  -0.48063  -0.47347  -0.47017  -0.46895
 Alpha  occ. eigenvalues --   -0.46691  -0.46173  -0.45782  -0.45491  -0.44939
 Alpha  occ. eigenvalues --   -0.44472  -0.44303  -0.44146  -0.42658  -0.41919
 Alpha  occ. eigenvalues --   -0.41749  -0.41067  -0.40819  -0.40554  -0.40439
 Alpha  occ. eigenvalues --   -0.40232  -0.40032  -0.39075  -0.38424  -0.38286
 Alpha  occ. eigenvalues --   -0.38208  -0.37708  -0.37473  -0.37042  -0.36919
 Alpha  occ. eigenvalues --   -0.36334  -0.36086  -0.35121  -0.34907  -0.34483
 Alpha  occ. eigenvalues --   -0.33404  -0.32946  -0.32787  -0.32628  -0.31569
 Alpha  occ. eigenvalues --   -0.30338  -0.27947  -0.26723  -0.26494  -0.25853
 Alpha  occ. eigenvalues --   -0.25713  -0.25025  -0.24693  -0.24344  -0.23923
 Alpha  occ. eigenvalues --   -0.23648  -0.22850  -0.20939  -0.17978  -0.13246
 Alpha virt. eigenvalues --   -0.05112  -0.03377  -0.01413  -0.00479  -0.00050
 Alpha virt. eigenvalues --    0.00623   0.00838   0.01016   0.01653   0.01754
 Alpha virt. eigenvalues --    0.02077   0.02554   0.02839   0.03144   0.03217

 Mulliken charges:
               1
     1  C    0.253413
     2  C   -0.156895
     3  C    0.126288
     4  C    0.192452
     5  C    0.192484
     6  C   -0.130693
     7  C    0.247001
     8  C    0.412145
     9  C    0.193831
    10  C   -0.723413
    11  C    0.253248
    12  C    0.078156
    13  C   -0.525719
    14  C   -0.610263
    15  H    0.123584
    16  H    0.124231
    17  H    0.132621
    18  N   -0.052151
    19  N   -0.153054
    20  O   -0.525240
    21  O   -0.501543
    22  O   -0.516952
    23  O   -0.441021
    24  C   -0.178036
    25  H    0.162046
    26  H    0.162041
    27  H    0.166616
    28  C   -0.201026
    29  H    0.159248
    30  H    0.162281
    31  H    0.167707
    32  C   -0.135999
    33  C   -0.480010
    34  S   -0.624008
    35  C   -0.322967
    36  H    0.152191
    37  C    0.648882
    38  O   -0.168672
    39  C    0.836474
    40  C   -0.236695
    41  C    0.031838
    42  S   -0.229204
    43  H    0.172238
    44  H    0.158820
    45  H    0.159220
    46  C   -0.612662
    47  O   -0.167371
    48  C   -0.348407
    49  H    0.156766
    50  C   -0.249638
    51  H    0.183598
    52  H    0.155951
    53  H    0.171043
    54  H    0.155227
 Sum of Mulliken charges =  -2.00000

 Dipole moment (field-independent basis, Debye):
    X=             26.5698    Y=             -0.7867    Z=              1.8071  Tot=             26.6428
 Quadrupole moment (field-independent basis, Debye-Ang):
   XX=           -375.9648   YY=           -289.8261   ZZ=           -234.4159
   XY=            -10.3451   XZ=              3.4789   YZ=             22.4692

 Normal termination of Gaussian 16 at Thu Oct 28 14:55:34 2021.
