 Gaussian 16, Revision C.01,
 Gaussian 16:  ES64L-G16RevC.01  3-Jul-2019

 ---------------------------------------------------------------
 # opt=modredundant b3lyp/6-311+g(d,p) scrf=(pcm, solvent=water)
 ---------------------------------------------------------------

 -----------
 NDI_-95.pdb
 -----------
 Symbolic Z-matrix:
 Charge = -2 Multiplicity = 1

 SCF Done:  E(RB3LYP) =  -2359.60290175     A.U. after   16 cycles
 SCF Done:  E(RB3LYP) =  -2359.62132889     A.U. after   15 cycles
 SCF Done:  E(RB3LYP) =  -2359.62401139     A.U. after   13 cycles
 SCF Done:  E(RB3LYP) =  -2359.62404646     A.U. after   12 cycles
 SCF Done:  E(RB3LYP) =  -2359.62422780     A.U. after   12 cycles
 SCF Done:  E(RB3LYP) =  -2359.62427304     A.U. after   11 cycles
 SCF Done:  E(RB3LYP) =  -2359.62427822     A.U. after   12 cycles
 SCF Done:  E(RB3LYP) =  -2359.62428709     A.U. after   11 cycles
 SCF Done:  E(RB3LYP) =  -2359.62428668     A.U. after   10 cycles
 SCF Done:  E(RB3LYP) =  -2359.62427691     A.U. after   12 cycles
 SCF Done:  E(RB3LYP) =  -2359.62428520     A.U. after   10 cycles
 SCF Done:  E(RB3LYP) =  -2359.62428599     A.U. after    8 cycles
 SCF Done:  E(RB3LYP) =  -2359.62428911     A.U. after   10 cycles
 SCF Done:  E(RB3LYP) =  -2359.62428574     A.U. after   10 cycles
 SCF Done:  E(RB3LYP) =  -2359.62428606     A.U. after    8 cycles
 SCF Done:  E(RB3LYP) =  -2359.62428912     A.U. after   10 cycles
 SCF Done:  E(RB3LYP) =  -2359.62428580     A.U. after   10 cycles
 SCF Done:  E(RB3LYP) =  -2359.62428580     A.U. after    8 cycles
 SCF Done:  E(RB3LYP) =  -2359.62428901     A.U. after   10 cycles
 SCF Done:  E(RB3LYP) =  -2359.62428541     A.U. after   10 cycles
 Optimization completed.
    -- Stationary point found.

                         Standard orientation:
 ---------------------------------------------------------------------
 Center     Atomic      Atomic             Coordinates (Angstroms)
 Number     Number       Type             X           Y           Z
 ---------------------------------------------------------------------
      1          6           0        3.252640   -2.822998    0.091097
      2          6           0        2.650350   -1.523473    0.116820
      3          6           0        3.444921   -0.364887   -0.061393
      4          6           0        4.843769   -0.465718   -0.271485
      5          6           0        5.478375   -1.751947   -0.304136
      6          6           0        1.244648   -1.392509    0.322401
      7          6           0        2.809372    0.934686   -0.023174
      8          6           0        1.401956    1.038751    0.191477
      9          6           0        0.617986   -0.175111    0.362990
     10          6           0        0.803929    2.345554    0.237358
     11          6           0        3.044683    3.395755   -0.171595
     12          6           0        3.622702    2.085684   -0.201717
     13          6           0        5.035214    1.949155   -0.414818
     14          6           0        5.626414    0.722665   -0.448650
     15          1           0        6.692460    0.618620   -0.608834
     16          1           0        5.616016    2.853745   -0.546154
     17          1           0        0.665683   -2.299151    0.446553
     18          7           0        1.660910    3.451854    0.054327
     19          7           0        4.639824   -2.870473   -0.124307
     20          8           0        2.630349   -3.903206    0.245708
     21          8           0        6.710146   -1.923913   -0.479795
     22          8           0        3.696560    4.458495   -0.330333
     23          8           0       -0.410576    2.585480    0.425167
     24          6           0        1.020628    4.768070    0.108478
     25          1           0        0.274333    4.860902   -0.682821
     26          1           0        0.514565    4.901854    1.065717
     27          1           0        1.792849    5.519818   -0.017285
     28          6           0        5.242788   -4.204753   -0.155784
     29          1           0        5.108326   -4.705414    0.805158
     30          1           0        4.765433   -4.814490   -0.924381
     31          1           0        6.300242   -4.089267   -0.369727
     32          6           0       -0.848487   -0.188263    0.594076
     33          6           0       -1.525208   -0.247136    1.781237
     34         16           0       -1.957559   -0.263465   -0.752990
     35          6           0       -2.939821   -0.319485    1.621002
     36          1           0       -1.023044   -0.218369    2.737570
     37          6           0       -3.370695   -0.334367    0.303720
     38          8           0       -3.856151   -0.383277    2.630991
     39          6           0       -4.723606   -0.412656   -0.196726
     40          6           0       -3.374810   -0.338256    3.977070
     41          6           0       -5.156968   -0.428854   -1.515610
     42         16           0       -6.125666   -0.500292    0.869574
     43          1           0       -4.257625   -0.391232    4.611399
     44          1           0       -2.721603   -1.189240    4.189564
     45          1           0       -2.840249    0.595649    4.172172
     46          6           0       -6.572650   -0.507759   -1.668681
     47          8           0       -4.244283   -0.372811   -2.528701
     48          6           0       -7.222299   -0.552474   -0.468329
     49          1           0       -7.082982   -0.530139   -2.620655
     50          6           0       -4.736017   -0.366838   -3.871409
     51          1           0       -8.284608   -0.613402   -0.288203
     52          1           0       -5.374897    0.502352   -4.052431
     53          1           0       -3.856961   -0.310426   -4.510495
     54          1           0       -5.288727   -1.284527   -4.092242
 ---------------------------------------------------------------------

 The electronic state is 1-A.
 Alpha  occ. eigenvalues --  -88.87674 -88.86683 -19.15950 -19.15903 -19.06609
 Alpha  occ. eigenvalues --  -19.06592 -19.06489 -19.06174 -14.34579 -14.34358
 Alpha  occ. eigenvalues --  -10.25046 -10.24873 -10.24865 -10.24856 -10.23585
 Alpha  occ. eigenvalues --  -10.23336 -10.22295 -10.22228 -10.20994 -10.20287
 Alpha  occ. eigenvalues --  -10.20257 -10.19858 -10.18512 -10.18368 -10.18125
 Alpha  occ. eigenvalues --  -10.18040 -10.17924 -10.17419 -10.16852 -10.16026
 Alpha  occ. eigenvalues --  -10.15590 -10.15349 -10.15288 -10.15280 -10.15228
 Alpha  occ. eigenvalues --  -10.15161  -7.96239  -7.95259  -5.92546  -5.92164
 Alpha  occ. eigenvalues --   -5.91809  -5.91578  -5.91192  -5.90806  -1.07249
 Alpha  occ. eigenvalues --   -1.07119  -1.02307  -1.02230  -0.99818  -0.99734
 Alpha  occ. eigenvalues --   -0.91058  -0.90823  -0.88956  -0.87376  -0.86073
 Alpha  occ. eigenvalues --   -0.81212  -0.79006  -0.77423  -0.75482  -0.74222
 Alpha  occ. eigenvalues --   -0.73628  -0.72681  -0.71634  -0.71233  -0.69185
 Alpha  occ. eigenvalues --   -0.68716  -0.67932  -0.66306  -0.62507  -0.61731
 Alpha  occ. eigenvalues --   -0.60891  -0.59746  -0.59024  -0.57285  -0.55048
 Alpha  occ. eigenvalues --   -0.54924  -0.53493  -0.53401  -0.52816  -0.50542
 Alpha  occ. eigenvalues --   -0.49325  -0.48410  -0.47422  -0.47101  -0.47079
 Alpha  occ. eigenvalues --   -0.46616  -0.46023  -0.45746  -0.45429  -0.44773
 Alpha  occ. eigenvalues --   -0.44447  -0.44339  -0.44198  -0.42556  -0.42200
 Alpha  occ. eigenvalues --   -0.41645  -0.41069  -0.40901  -0.40536  -0.40316
 Alpha  occ. eigenvalues --   -0.40070  -0.39983  -0.39185  -0.38199  -0.38175
 Alpha  occ. eigenvalues --   -0.37884  -0.37739  -0.37334  -0.36912  -0.36744
 Alpha  occ. eigenvalues --   -0.36459  -0.36207  -0.35148  -0.34665  -0.34536
 Alpha  occ. eigenvalues --   -0.33323  -0.33057  -0.32729  -0.32362  -0.31583
 Alpha  occ. eigenvalues --   -0.30031  -0.27756  -0.26680  -0.26232  -0.25714
 Alpha  occ. eigenvalues --   -0.25513  -0.25030  -0.24363  -0.24241  -0.23968
 Alpha  occ. eigenvalues --   -0.23435  -0.23328  -0.20820  -0.18268  -0.13163
 Alpha virt. eigenvalues --   -0.04177  -0.03452  -0.01147  -0.00355  -0.00047
 Alpha virt. eigenvalues --    0.00338   0.00538   0.00994   0.01227   0.01342
 Alpha virt. eigenvalues --    0.01717   0.02569   0.02689   0.03045   0.03160

 Mulliken charges:
               1
     1  C    0.417790
     2  C    0.011457
     3  C    0.189887
     4  C    0.145167
     5  C    0.252647
     6  C   -0.604826
     7  C    0.203049
     8  C   -0.192228
     9  C    0.435124
    10  C   -0.361635
    11  C    0.188111
    12  C    0.165752
    13  C   -0.577145
    14  C   -0.654496
    15  H    0.121826
    16  H    0.122556
    17  H    0.115640
    18  N   -0.179642
    19  N   -0.161992
    20  O   -0.527135
    21  O   -0.516354
    22  O   -0.515338
    23  O   -0.375246
    24  C   -0.220373
    25  H    0.160605
    26  H    0.158839
    27  H    0.168339
    28  C   -0.199975
    29  H    0.159889
    30  H    0.158836
    31  H    0.167738
    32  C    0.049281
    33  C   -0.484729
    34  S   -0.131364
    35  C   -0.142908
    36  H    0.132651
    37  C    0.202434
    38  O   -0.175435
    39  C    0.749126
    40  C   -0.234876
    41  C    0.046558
    42  S   -0.254977
    43  H    0.172323
    44  H    0.159737
    45  H    0.161986
    46  C   -0.529020
    47  O   -0.180363
    48  C   -0.375436
    49  H    0.157104
    50  C   -0.246835
    51  H    0.183810
    52  H    0.156987
    53  H    0.171140
    54  H    0.155940
 Sum of Mulliken charges =  -2.00000

 Dipole moment (field-independent basis, Debye):
    X=            -28.0801    Y=             -2.4757    Z=              0.5097  Tot=             28.1936
 Quadrupole moment (field-independent basis, Debye-Ang):
   XX=           -381.3807   YY=           -316.8518   ZZ=           -205.1177
   XY=              0.4706   XZ=             21.5899   YZ=              3.2271

 Normal termination of Gaussian 16 at Thu Oct 28 13:39:44 2021.
