 Gaussian 16, Revision C.01,
 Gaussian 16:  ES64L-G16RevC.01  3-Jul-2019

 ---------------------------------------------------------------
 # opt=modredundant b3lyp/6-311+g(d,p) scrf=(pcm, solvent=water)
 ---------------------------------------------------------------

 ------------
 NDI_-160.pdb
 ------------
 Symbolic Z-matrix:
 Charge = -2 Multiplicity = 1

 SCF Done:  E(RB3LYP) =  -2359.57043519     A.U. after   17 cycles
 SCF Done:  E(RB3LYP) =  -2359.59861011     A.U. after   17 cycles
 SCF Done:  E(RB3LYP) =  -2359.61366402     A.U. after   14 cycles
 SCF Done:  E(RB3LYP) =  -2359.61720064     A.U. after   14 cycles
 SCF Done:  E(RB3LYP) =  -2359.61886901     A.U. after   15 cycles
 SCF Done:  E(RB3LYP) =  -2359.61977564     A.U. after   16 cycles
 SCF Done:  E(RB3LYP) =  -2359.62057504     A.U. after   13 cycles
 SCF Done:  E(RB3LYP) =  -2359.62196074     A.U. after   15 cycles
 SCF Done:  E(RB3LYP) =  -2359.62192511     A.U. after   17 cycles
 SCF Done:  E(RB3LYP) =  -2359.62295685     A.U. after   13 cycles
 SCF Done:  E(RB3LYP) =  -2359.62336238     A.U. after   10 cycles
 SCF Done:  E(RB3LYP) =  -2359.62336456     A.U. after    9 cycles
 SCF Done:  E(RB3LYP) =  -2359.62336691     A.U. after   11 cycles
 SCF Done:  E(RB3LYP) =  -2359.62336822     A.U. after   10 cycles
 SCF Done:  E(RB3LYP) =  -2359.62336848     A.U. after    9 cycles
 SCF Done:  E(RB3LYP) =  -2359.62336851     A.U. after    7 cycles
 SCF Done:  E(RB3LYP) =  -2359.62336852     A.U. after    7 cycles
 SCF Done:  E(RB3LYP) =  -2359.62336854     A.U. after    8 cycles
 SCF Done:  E(RB3LYP) =  -2359.62336859     A.U. after    9 cycles
 SCF Done:  E(RB3LYP) =  -2359.62336863     A.U. after    8 cycles
 Optimization completed.
    -- Stationary point found.

                         Standard orientation:
 ---------------------------------------------------------------------
 Center     Atomic      Atomic             Coordinates (Angstroms)
 Number     Number       Type             X           Y           Z
 ---------------------------------------------------------------------
      1          6           0       -3.534226   -2.664765    0.232759
      2          6           0       -2.794765   -1.465667   -0.037690
      3          6           0       -3.408651   -0.197702    0.129597
      4          6           0       -4.749973   -0.086725    0.563647
      5          6           0       -5.517678   -1.269949    0.846912
      6          6           0       -1.415244   -1.543237   -0.371207
      7          6           0       -2.642583    0.990259   -0.171719
      8          6           0       -1.293993    0.877211   -0.624040
      9          6           0       -0.646680   -0.432954   -0.642869
     10          6           0       -0.683859    2.040096   -1.205600
     11          6           0       -2.596261    3.453112   -0.420523
     12          6           0       -3.286670    2.249847   -0.052741
     13          6           0       -4.641993    2.330368    0.404887
     14          6           0       -5.350521    1.205593    0.708028
     15          1           0       -6.377630    1.262496    1.046232
     16          1           0       -5.089641    3.312887    0.489852
     17          1           0       -0.950078   -2.518134   -0.311088
     18          7           0       -1.323021    3.280676   -0.978403
     19          7           0       -4.866764   -2.502986    0.650656
     20          8           0       -3.076644   -3.827471    0.123985
     21          8           0       -6.706436   -1.252800    1.243620
     22          8           0       -3.075084    4.607265   -0.299313
     23          8           0        0.352504    2.043852   -1.908599
     24          6           0       -0.623682    4.469460   -1.471030
     25          1           0        0.432889    4.400250   -1.218622
     26          1           0       -0.709519    4.553103   -2.558241
     27          1           0       -1.074882    5.341688   -1.008460
     28          6           0       -5.616212   -3.734270    0.911371
     29          1           0       -5.561295   -4.392629    0.044170
     30          1           0       -5.194625   -4.264953    1.768108
     31          1           0       -6.646273   -3.462800    1.117861
     32          6           0        0.807777   -0.640174   -0.691066
     33          6           0        1.470605   -1.785347   -1.088210
     34         16           0        1.922703    0.435999    0.130143
     35          6           0        2.848161   -1.794377   -0.756522
     36          1           0        0.975320   -2.589708   -1.612175
     37          6           0        3.286141   -0.666779   -0.074908
     38          8           0        3.738638   -2.783870   -1.063203
     39          6           0        4.623302   -0.349170    0.363057
     40          6           0        3.249082   -3.934653   -1.755764
     41          6           0        5.063557    0.761716    1.072696
     42         16           0        6.001224   -1.405166    0.042634
     43          1           0        4.108387   -4.588283   -1.893819
     44          1           0        2.487068   -4.453183   -1.166863
     45          1           0        2.837988   -3.661242   -2.731718
     46          6           0        6.462206    0.768490    1.348526
     47          8           0        4.170246    1.724906    1.445378
     48          6           0        7.095302   -0.336201    0.854092
     49          1           0        6.973121    1.552082    1.889199
     50          6           0        4.669796    2.857399    2.160248
     51          1           0        8.141751   -0.590897    0.922243
     52          1           0        5.403477    3.407245    1.563575
     53          1           0        3.807817    3.493703    2.351405
     54          1           0        5.118361    2.556684    3.111600
 ---------------------------------------------------------------------

 The electronic state is 1-A.
 Alpha  occ. eigenvalues --  -88.87541 -88.86347 -19.15827 -19.15775 -19.06999
 Alpha  occ. eigenvalues --  -19.06859 -19.06668 -19.06338 -14.34764 -14.34394
 Alpha  occ. eigenvalues --  -10.25429 -10.25163 -10.25034 -10.24910 -10.23425
 Alpha  occ. eigenvalues --  -10.23126 -10.22233 -10.22161 -10.20901 -10.20233
 Alpha  occ. eigenvalues --  -10.20014 -10.19711 -10.18626 -10.18482 -10.18178
 Alpha  occ. eigenvalues --  -10.17975 -10.17947 -10.17580 -10.16620 -10.15915
 Alpha  occ. eigenvalues --  -10.15817 -10.15674 -10.15477 -10.15474 -10.15416
 Alpha  occ. eigenvalues --  -10.15324  -7.96106  -7.94913  -5.92414  -5.92032
 Alpha  occ. eigenvalues --   -5.91674  -5.91235  -5.90851  -5.90450  -1.07119
 Alpha  occ. eigenvalues --   -1.06993  -1.02652  -1.02366  -1.00221  -0.99902
 Alpha  occ. eigenvalues --   -0.91319  -0.90961  -0.88783  -0.87277  -0.86137
 Alpha  occ. eigenvalues --   -0.81363  -0.79143  -0.77383  -0.75366  -0.74157
 Alpha  occ. eigenvalues --   -0.73726  -0.72762  -0.71647  -0.71166  -0.69135
 Alpha  occ. eigenvalues --   -0.68773  -0.67979  -0.66284  -0.62637  -0.61869
 Alpha  occ. eigenvalues --   -0.61005  -0.59943  -0.58812  -0.57240  -0.55020
 Alpha  occ. eigenvalues --   -0.54836  -0.53658  -0.53294  -0.52899  -0.50679
 Alpha  occ. eigenvalues --   -0.49722  -0.47791  -0.47333  -0.47102  -0.47017
 Alpha  occ. eigenvalues --   -0.46561  -0.46196  -0.45875  -0.45481  -0.44903
 Alpha  occ. eigenvalues --   -0.44482  -0.44315  -0.44155  -0.42879  -0.42248
 Alpha  occ. eigenvalues --   -0.41284  -0.41190  -0.40903  -0.40532  -0.40401
 Alpha  occ. eigenvalues --   -0.40230  -0.40047  -0.39245  -0.38418  -0.38299
 Alpha  occ. eigenvalues --   -0.37991  -0.37574  -0.37503  -0.37046  -0.36978
 Alpha  occ. eigenvalues --   -0.36255  -0.36160  -0.35185  -0.34902  -0.34467
 Alpha  occ. eigenvalues --   -0.33411  -0.32982  -0.32744  -0.32175  -0.31824
 Alpha  occ. eigenvalues --   -0.30226  -0.27866  -0.26771  -0.26529  -0.25848
 Alpha  occ. eigenvalues --   -0.25750  -0.25076  -0.24599  -0.24341  -0.23909
 Alpha  occ. eigenvalues --   -0.23640  -0.22913  -0.20961  -0.17986  -0.13241
 Alpha virt. eigenvalues --   -0.05045  -0.03352  -0.01472  -0.00537  -0.00075
 Alpha virt. eigenvalues --    0.00607   0.00862   0.01071   0.01492   0.01677
 Alpha virt. eigenvalues --    0.02143   0.02646   0.02768   0.03107   0.03333

 Mulliken charges:
               1
     1  C    0.313248
     2  C   -0.120499
     3  C    0.085990
     4  C    0.199714
     5  C    0.185433
     6  C   -0.062715
     7  C    0.138396
     8  C    0.163753
     9  C    0.232012
    10  C   -0.572866
    11  C    0.305673
    12  C    0.037008
    13  C   -0.520885
    14  C   -0.551360
    15  H    0.123574
    16  H    0.123945
    17  H    0.127790
    18  N   -0.026971
    19  N   -0.157743
    20  O   -0.522660
    21  O   -0.503956
    22  O   -0.515949
    23  O   -0.460661
    24  C   -0.192017
    25  H    0.164957
    26  H    0.163422
    27  H    0.167544
    28  C   -0.197801
    29  H    0.159114
    30  H    0.162864
    31  H    0.167793
    32  C    0.038010
    33  C   -0.615614
    34  S   -0.739067
    35  C   -0.237085
    36  H    0.145375
    37  C    0.662642
    38  O   -0.172022
    39  C    0.810584
    40  C   -0.235253
    41  C   -0.014489
    42  S   -0.227796
    43  H    0.172269
    44  H    0.159399
    45  H    0.158479
    46  C   -0.592769
    47  O   -0.165181
    48  C   -0.336017
    49  H    0.156351
    50  C   -0.250376
    51  H    0.183514
    52  H    0.156599
    53  H    0.171109
    54  H    0.155189
 Sum of Mulliken charges =  -2.00000

 Dipole moment (field-independent basis, Debye):
    X=             25.7390    Y=             -3.5881    Z=              1.8403  Tot=             26.0530
 Quadrupole moment (field-independent basis, Debye-Ang):
   XX=           -368.2919   YY=           -289.3980   ZZ=           -238.0808
   XY=             13.7559   XZ=             26.3660   YZ=             21.4148

 Normal termination of Gaussian 16 at Thu Oct 28 09:40:26 2021.
