 Gaussian 16, Revision C.01,
 Gaussian 16:  ES64L-G16RevC.01  3-Jul-2019

 ---------------------------------------------------------------
 # opt=modredundant b3lyp/6-311+g(d,p) scrf=(pcm, solvent=water)
 ---------------------------------------------------------------

 ----------
 NDI_30.pdb
 ----------
 Symbolic Z-matrix:
 Charge = -2 Multiplicity = 1

 SCF Done:  E(RB3LYP) =  -2359.59522645     A.U. after   16 cycles
 SCF Done:  E(RB3LYP) =  -2359.60339299     A.U. after   16 cycles
 SCF Done:  E(RB3LYP) =  -2359.61657217     A.U. after   16 cycles
 SCF Done:  E(RB3LYP) =  -2359.61851943     A.U. after   15 cycles
 SCF Done:  E(RB3LYP) =  -2359.61982414     A.U. after   15 cycles
 SCF Done:  E(RB3LYP) =  -2359.62111623     A.U. after   16 cycles
 SCF Done:  E(RB3LYP) =  -2359.62255601     A.U. after   17 cycles
 SCF Done:  E(RB3LYP) =  -2359.62372191     A.U. after   14 cycles
 SCF Done:  E(RB3LYP) =  -2359.62445776     A.U. after   16 cycles
 SCF Done:  E(RB3LYP) =  -2359.62438259     A.U. after   12 cycles
 SCF Done:  E(RB3LYP) =  -2359.62476012     A.U. after   10 cycles
 SCF Done:  E(RB3LYP) =  -2359.62476313     A.U. after   11 cycles
 SCF Done:  E(RB3LYP) =  -2359.62476397     A.U. after   10 cycles
 SCF Done:  E(RB3LYP) =  -2359.62476439     A.U. after   10 cycles
 SCF Done:  E(RB3LYP) =  -2359.62476464     A.U. after   10 cycles
 SCF Done:  E(RB3LYP) =  -2359.62476496     A.U. after    9 cycles
 SCF Done:  E(RB3LYP) =  -2359.62476496     A.U. after    8 cycles
 SCF Done:  E(RB3LYP) =  -2359.62476488     A.U. after    8 cycles
 SCF Done:  E(RB3LYP) =  -2359.62476479     A.U. after    9 cycles
 SCF Done:  E(RB3LYP) =  -2359.62476469     A.U. after    8 cycles
 Optimization completed.
    -- Stationary point found.

                         Standard orientation:
 ---------------------------------------------------------------------
 Center     Atomic      Atomic             Coordinates (Angstroms)
 Number     Number       Type             X           Y           Z
 ---------------------------------------------------------------------
      1          6           0       -2.743879   -2.985134    0.259384
      2          6           0       -2.368322   -1.612432    0.082099
      3          6           0       -3.357706   -0.596115    0.082831
      4          6           0       -4.725590   -0.910873    0.257376
      5          6           0       -5.135274   -2.277400    0.443175
      6          6           0       -0.994433   -1.258323    0.008860
      7          6           0       -2.946772    0.775842   -0.117282
      8          6           0       -1.567513    1.092294   -0.308777
      9          6           0       -0.563271    0.039791   -0.152952
     10          6           0       -1.240998    2.406724   -0.790818
     11          6           0       -3.610674    3.140240   -0.431581
     12          6           0       -3.955822    1.773623   -0.163901
     13          6           0       -5.331959    1.424803    0.028884
     14          6           0       -5.707902    0.131115    0.236598
     15          1           0       -6.747979   -0.136245    0.375161
     16          1           0       -6.065228    2.221055   -0.006000
     17          1           0       -0.275326   -2.049329    0.180950
     18          7           0       -2.263943    3.383235   -0.726436
     19          7           0       -4.115279   -3.247954    0.421670
     20          8           0       -1.940519   -3.948020    0.281949
     21          8           0       -6.325276   -2.632180    0.613952
     22          8           0       -4.435011    4.087399   -0.442222
     23          8           0       -0.142171    2.758983   -1.275756
     24          6           0       -1.882490    4.745026   -1.106882
     25          1           0       -0.926416    4.995392   -0.651015
     26          1           0       -1.776401    4.834563   -2.191769
     27          1           0       -2.661593    5.420257   -0.767177
     28          6           0       -4.488051   -4.653939    0.595140
     29          1           0       -4.101362   -5.247520   -0.233843
     30          1           0       -4.066096   -5.049231    1.521700
     31          1           0       -5.570899   -4.712789    0.628917
     32          6           0        0.861625    0.310132    0.065194
     33          6           0        1.468578    1.373281    0.691664
     34         16           0        2.073841   -0.833594   -0.494461
     35          6           0        2.879982    1.255207    0.769315
     36          1           0        0.911814    2.206100    1.090233
     37          6           0        3.404988    0.113497    0.179398
     38          8           0        3.723546    2.149216    1.364284
     39          6           0        4.782895   -0.301670    0.096340
     40          6           0        3.148283    3.293390    2.000621
     41          6           0        5.314064   -1.423939   -0.527854
     42         16           0        6.096835    0.619103    0.832045
     43          1           0        3.983659    3.858674    2.409648
     44          1           0        2.606050    3.912735    1.280858
     45          1           0        2.476681    2.995640    2.810831
     46          6           0        6.730235   -1.543990   -0.418639
     47          8           0        4.484131   -2.293791   -1.175569
     48          6           0        7.286561   -0.515104    0.286822
     49          1           0        7.308079   -2.351672   -0.844206
     50          6           0        5.072716   -3.435994   -1.801793
     51          1           0        8.328183   -0.350921    0.516179
     52          1           0        5.580048   -4.069562   -1.068414
     53          1           0        4.249039   -3.988424   -2.249947
     54          1           0        5.778257   -3.137016   -2.582509
 ---------------------------------------------------------------------

 The electronic state is 1-A.
 Alpha  occ. eigenvalues --  -88.87559 -88.86573 -19.15856 -19.15787 -19.06986
 Alpha  occ. eigenvalues --  -19.06842 -19.06626 -19.06233 -14.34760 -14.34352
 Alpha  occ. eigenvalues --  -10.25420 -10.25141 -10.24984 -10.24886 -10.23432
 Alpha  occ. eigenvalues --  -10.23200 -10.22250 -10.22146 -10.20934 -10.20082
 Alpha  occ. eigenvalues --  -10.20055 -10.19718 -10.18623 -10.18453 -10.18189
 Alpha  occ. eigenvalues --  -10.17971 -10.17962 -10.17616 -10.16444 -10.15913
 Alpha  occ. eigenvalues --  -10.15876 -10.15657 -10.15449 -10.15446 -10.15385
 Alpha  occ. eigenvalues --  -10.15296  -7.96123  -7.95148  -5.92432  -5.92049
 Alpha  occ. eigenvalues --   -5.91691  -5.91470  -5.91091  -5.90683  -1.07143
 Alpha  occ. eigenvalues --   -1.07011  -1.02635  -1.02314  -1.00205  -0.99841
 Alpha  occ. eigenvalues --   -0.91311  -0.90895  -0.88816  -0.87289  -0.86128
 Alpha  occ. eigenvalues --   -0.81351  -0.79134  -0.77347  -0.75465  -0.74275
 Alpha  occ. eigenvalues --   -0.73438  -0.72924  -0.71595  -0.71228  -0.69128
 Alpha  occ. eigenvalues --   -0.68826  -0.67960  -0.66208  -0.62713  -0.61808
 Alpha  occ. eigenvalues --   -0.61024  -0.59983  -0.58795  -0.57245  -0.54996
 Alpha  occ. eigenvalues --   -0.54844  -0.53584  -0.53285  -0.52905  -0.50767
 Alpha  occ. eigenvalues --   -0.49567  -0.48090  -0.47350  -0.47022  -0.46907
 Alpha  occ. eigenvalues --   -0.46685  -0.46157  -0.45785  -0.45484  -0.44924
 Alpha  occ. eigenvalues --   -0.44464  -0.44297  -0.44161  -0.42638  -0.41932
 Alpha  occ. eigenvalues --   -0.41750  -0.41082  -0.40827  -0.40532  -0.40444
 Alpha  occ. eigenvalues --   -0.40234  -0.40020  -0.39076  -0.38409  -0.38274
 Alpha  occ. eigenvalues --   -0.38202  -0.37699  -0.37444  -0.37025  -0.36910
 Alpha  occ. eigenvalues --   -0.36364  -0.36098  -0.35092  -0.34940  -0.34483
 Alpha  occ. eigenvalues --   -0.33387  -0.32938  -0.32761  -0.32629  -0.31616
 Alpha  occ. eigenvalues --   -0.30336  -0.27923  -0.26721  -0.26473  -0.25839
 Alpha  occ. eigenvalues --   -0.25709  -0.25009  -0.24695  -0.24315  -0.23898
 Alpha  occ. eigenvalues --   -0.23677  -0.22852  -0.20931  -0.18000  -0.13242
 Alpha virt. eigenvalues --   -0.05020  -0.03365  -0.01411  -0.00476  -0.00046
 Alpha virt. eigenvalues --    0.00620   0.00855   0.01005   0.01616   0.01679
 Alpha virt. eigenvalues --    0.02049   0.02562   0.02796   0.03138   0.03210

 Mulliken charges:
               1
     1  C    0.281401
     2  C   -0.186520
     3  C    0.106458
     4  C    0.186704
     5  C    0.202069
     6  C   -0.242464
     7  C    0.230617
     8  C    0.362181
     9  C    0.284229
    10  C   -0.644996
    11  C    0.246505
    12  C    0.068760
    13  C   -0.514436
    14  C   -0.599954
    15  H    0.123467
    16  H    0.123996
    17  H    0.133766
    18  N   -0.062633
    19  N   -0.153755
    20  O   -0.525908
    21  O   -0.503130
    22  O   -0.516935
    23  O   -0.432830
    24  C   -0.182598
    25  H    0.162301
    26  H    0.162181
    27  H    0.166528
    28  C   -0.201499
    29  H    0.159171
    30  H    0.162251
    31  H    0.167720
    32  C   -0.026362
    33  C   -0.488533
    34  S   -0.622282
    35  C   -0.365496
    36  H    0.150161
    37  C    0.637621
    38  O   -0.168958
    39  C    0.806056
    40  C   -0.236685
    41  C    0.033007
    42  S   -0.232018
    43  H    0.172183
    44  H    0.158788
    45  H    0.159516
    46  C   -0.601082
    47  O   -0.167812
    48  C   -0.343561
    49  H    0.156760
    50  C   -0.249847
    51  H    0.183473
    52  H    0.156381
    53  H    0.170940
    54  H    0.155100
 Sum of Mulliken charges =  -2.00000

 Dipole moment (field-independent basis, Debye):
    X=             26.7002    Y=             -0.7685    Z=              1.7915  Tot=             26.7713
 Quadrupole moment (field-independent basis, Debye-Ang):
   XX=           -376.8794   YY=           -290.9875   ZZ=           -232.8849
   XY=            -10.3041   XZ=              1.4529   YZ=             24.9732

 Normal termination of Gaussian 16 at Thu Oct 28 12:07:39 2021.
