 Gaussian 16, Revision C.01,
 Gaussian 16:  ES64L-G16RevC.01  3-Jul-2019

 ---------------------------------------------------------------
 # opt=modredundant b3lyp/6-311+g(d,p) scrf=(pcm, solvent=water)
 ---------------------------------------------------------------

 -----------
 NDI_150.pdb
 -----------
 Symbolic Z-matrix:
 Charge = -2 Multiplicity = 1

 SCF Done:  E(RB3LYP) =  -2359.58277801     A.U. after   17 cycles
 SCF Done:  E(RB3LYP) =  -2359.60289525     A.U. after   17 cycles
 SCF Done:  E(RB3LYP) =  -2359.61490739     A.U. after   16 cycles
 SCF Done:  E(RB3LYP) =  -2359.62069656     A.U. after   17 cycles
 SCF Done:  E(RB3LYP) =  -2359.62287033     A.U. after   16 cycles
 SCF Done:  E(RB3LYP) =  -2359.62378880     A.U. after   14 cycles
 SCF Done:  E(RB3LYP) =  -2359.62426608     A.U. after   13 cycles
 SCF Done:  E(RB3LYP) =  -2359.62437184     A.U. after   12 cycles
 SCF Done:  E(RB3LYP) =  -2359.62441046     A.U. after   12 cycles
 SCF Done:  E(RB3LYP) =  -2359.62443901     A.U. after   12 cycles
 SCF Done:  E(RB3LYP) =  -2359.62454932     A.U. after    9 cycles
 SCF Done:  E(RB3LYP) =  -2359.62454956     A.U. after    9 cycles
 SCF Done:  E(RB3LYP) =  -2359.62454968     A.U. after    9 cycles
 SCF Done:  E(RB3LYP) =  -2359.62454977     A.U. after    8 cycles
 SCF Done:  E(RB3LYP) =  -2359.62454991     A.U. after    9 cycles
 SCF Done:  E(RB3LYP) =  -2359.62455003     A.U. after    9 cycles
 SCF Done:  E(RB3LYP) =  -2359.62455011     A.U. after    8 cycles
 SCF Done:  E(RB3LYP) =  -2359.62455015     A.U. after    9 cycles
 SCF Done:  E(RB3LYP) =  -2359.62455017     A.U. after    8 cycles
 SCF Done:  E(RB3LYP) =  -2359.62455016     A.U. after    8 cycles
 Optimization completed.
    -- Stationary point found.

                         Standard orientation:
 ---------------------------------------------------------------------
 Center     Atomic      Atomic             Coordinates (Angstroms)
 Number     Number       Type             X           Y           Z
 ---------------------------------------------------------------------
      1          6           0        3.502088   -2.679721    0.315287
      2          6           0        2.778134   -1.477713    0.020051
      3          6           0        3.416240   -0.215981    0.134146
      4          6           0        4.767933   -0.114864    0.540160
      5          6           0        5.518964   -1.300626    0.852580
      6          6           0        1.392285   -1.542280   -0.296159
      7          6           0        2.666540    0.976466   -0.191876
      8          6           0        1.307360    0.873644   -0.613770
      9          6           0        0.643513   -0.425350   -0.587078
     10          6           0        0.692569    2.033609   -1.197022
     11          6           0        2.653740    3.431714   -0.508380
     12          6           0        3.333219    2.227830   -0.123712
     13          6           0        4.699966    2.298039    0.301878
     14          6           0        5.394194    1.170757    0.626998
     15          1           0        6.429406    1.219929    0.940837
     16          1           0        5.166920    3.274242    0.345660
     17          1           0        0.907707   -2.506421   -0.213623
     18          7           0        1.361201    3.266964   -1.024211
     19          7           0        4.842777   -2.527716    0.709815
     20          8           0        3.024218   -3.837875    0.247769
     21          8           0        6.714420   -1.291935    1.230624
     22          8           0        3.155709    4.580160   -0.433570
     23          8           0       -0.372360    2.040913   -1.855468
     24          6           0        0.663837    4.454070   -1.523369
     25          1           0        0.685781    4.490803   -2.616156
     26          1           0       -0.377499    4.425274   -1.206488
     27          1           0        1.164056    5.330731   -1.124228
     28          6           0        5.573457   -3.762920    1.002772
     29          1           0        5.136369   -4.269302    1.866148
     30          1           0        5.518660   -4.439652    0.149440
     31          1           0        6.605110   -3.500148    1.212339
     32          6           0       -0.813671   -0.611237   -0.650119
     33          6           0       -1.492749   -1.684340   -1.185432
     34         16           0       -1.911737    0.395425    0.273489
     35          6           0       -2.878891   -1.692103   -0.879009
     36          1           0       -1.004462   -2.434553   -1.790339
     37          6           0       -3.300876   -0.634837   -0.085556
     38          8           0       -3.787188   -2.618274   -1.306143
     39          6           0       -4.637244   -0.332865    0.367173
     40          6           0       -3.317958   -3.684406   -2.135242
     41          6           0       -5.060032    0.702652    1.191457
     42         16           0       -6.036147   -1.306526   -0.091204
     43          1           0       -4.190717   -4.295147   -2.358714
     44          1           0       -2.892930   -3.300145   -3.066834
     45          1           0       -2.572851   -4.290540   -1.612161
     46          6           0       -6.462609    0.717080    1.446935
     47          8           0       -4.148614    1.593723    1.680867
     48          6           0       -7.115501   -0.306411    0.821134
     49          1           0       -6.962066    1.448338    2.065928
     50          6           0       -4.626574    2.635374    2.535197
     51          1           0       -8.169292   -0.537793    0.844928
     52          1           0       -5.088164    2.223790    3.437520
     53          1           0       -3.751415    3.220846    2.810398
     54          1           0       -5.343426    3.275431    2.012646
 ---------------------------------------------------------------------

 The electronic state is 1-A.
 Alpha  occ. eigenvalues --  -88.87572 -88.86377 -19.15854 -19.15806 -19.06920
 Alpha  occ. eigenvalues --  -19.06797 -19.06648 -19.06327 -14.34722 -14.34389
 Alpha  occ. eigenvalues --  -10.25355 -10.25096 -10.25021 -10.24908 -10.23461
 Alpha  occ. eigenvalues --  -10.23179 -10.22247 -10.22174 -10.20920 -10.20215
 Alpha  occ. eigenvalues --  -10.20086 -10.19745 -10.18598 -10.18466 -10.18164
 Alpha  occ. eigenvalues --  -10.17973 -10.17969 -10.17507 -10.16682 -10.15856
 Alpha  occ. eigenvalues --  -10.15831 -10.15613 -10.15448 -10.15431 -10.15383
 Alpha  occ. eigenvalues --  -10.15299  -7.96137  -7.94949  -5.92445  -5.92063
 Alpha  occ. eigenvalues --   -5.91706  -5.91271  -5.90889  -5.90484  -1.07150
 Alpha  occ. eigenvalues --   -1.07023  -1.02576  -1.02349  -1.00135  -0.99884
 Alpha  occ. eigenvalues --   -0.91261  -0.90943  -0.88820  -0.87298  -0.86126
 Alpha  occ. eigenvalues --   -0.81344  -0.79118  -0.77399  -0.75389  -0.74166
 Alpha  occ. eigenvalues --   -0.73715  -0.72745  -0.71642  -0.71184  -0.69139
 Alpha  occ. eigenvalues --   -0.68766  -0.67971  -0.66292  -0.62608  -0.61842
 Alpha  occ. eigenvalues --   -0.60991  -0.59903  -0.58861  -0.57246  -0.55026
 Alpha  occ. eigenvalues --   -0.54857  -0.53606  -0.53325  -0.52881  -0.50650
 Alpha  occ. eigenvalues --   -0.49662  -0.47890  -0.47353  -0.47101  -0.47034
 Alpha  occ. eigenvalues --   -0.46590  -0.46158  -0.45849  -0.45472  -0.44879
 Alpha  occ. eigenvalues --   -0.44470  -0.44327  -0.44148  -0.42831  -0.42237
 Alpha  occ. eigenvalues --   -0.41304  -0.41221  -0.40903  -0.40511  -0.40413
 Alpha  occ. eigenvalues --   -0.40228  -0.40025  -0.39228  -0.38377  -0.38275
 Alpha  occ. eigenvalues --   -0.37964  -0.37595  -0.37481  -0.37005  -0.36919
 Alpha  occ. eigenvalues --   -0.36284  -0.36206  -0.35115  -0.34943  -0.34480
 Alpha  occ. eigenvalues --   -0.33349  -0.32999  -0.32760  -0.32266  -0.31800
 Alpha  occ. eigenvalues --   -0.30175  -0.27833  -0.26753  -0.26470  -0.25828
 Alpha  occ. eigenvalues --   -0.25705  -0.25064  -0.24582  -0.24273  -0.23842
 Alpha  occ. eigenvalues --   -0.23720  -0.22984  -0.20936  -0.18051  -0.13236
 Alpha virt. eigenvalues --   -0.04864  -0.03369  -0.01395  -0.00519  -0.00063
 Alpha virt. eigenvalues --    0.00594   0.00903   0.01047   0.01304   0.01622
 Alpha virt. eigenvalues --    0.02096   0.02608   0.02777   0.03089   0.03292

 Mulliken charges:
               1
     1  C    0.322882
     2  C   -0.136639
     3  C    0.098078
     4  C    0.180428
     5  C    0.199791
     6  C   -0.189486
     7  C    0.171313
     8  C    0.078929
     9  C    0.264200
    10  C   -0.498925
    11  C    0.293144
    12  C    0.029465
    13  C   -0.516768
    14  C   -0.547976
    15  H    0.123202
    16  H    0.123517
    17  H    0.127181
    18  N   -0.050136
    19  N   -0.157841
    20  O   -0.524551
    21  O   -0.506114
    22  O   -0.516536
    23  O   -0.460043
    24  C   -0.185609
    25  H    0.163274
    26  H    0.164167
    27  H    0.167837
    28  C   -0.197273
    29  H    0.162185
    30  H    0.159010
    31  H    0.168154
    32  C    0.102475
    33  C   -0.635540
    34  S   -0.703534
    35  C   -0.148330
    36  H    0.147155
    37  C    0.608400
    38  O   -0.173254
    39  C    0.812845
    40  C   -0.235570
    41  C   -0.000831
    42  S   -0.237055
    43  H    0.172118
    44  H    0.159535
    45  H    0.159877
    46  C   -0.607161
    47  O   -0.166233
    48  C   -0.337030
    49  H    0.156567
    50  C   -0.249942
    51  H    0.183597
    52  H    0.155496
    53  H    0.171202
    54  H    0.156355
 Sum of Mulliken charges =  -2.00000

 Dipole moment (field-independent basis, Debye):
    X=            -26.1832    Y=             -3.4076    Z=              1.7142  Tot=             26.4596
 Quadrupole moment (field-independent basis, Debye-Ang):
   XX=           -370.4335   YY=           -292.4139   ZZ=           -234.0367
   XY=            -12.6933   XZ=            -26.1410   YZ=             25.1094

 Normal termination of Gaussian 16 at Thu Oct 28 13:58:15 2021.
