 Gaussian 16, Revision C.01,
 Gaussian 16:  ES64L-G16RevC.01  3-Jul-2019

 ---------------------------------------------------------------
 # opt=modredundant b3lyp/6-311+g(d,p) scrf=(pcm, solvent=water)
 ---------------------------------------------------------------

 -----------
 NDI_105.pdb
 -----------
 Symbolic Z-matrix:
 Charge = -2 Multiplicity = 1

 SCF Done:  E(RB3LYP) =  -2359.60343994     A.U. after   16 cycles
 SCF Done:  E(RB3LYP) =  -2359.62124520     A.U. after   14 cycles
 SCF Done:  E(RB3LYP) =  -2359.62420360     A.U. after   14 cycles
 SCF Done:  E(RB3LYP) =  -2359.62438798     A.U. after   12 cycles
 SCF Done:  E(RB3LYP) =  -2359.62445098     A.U. after   12 cycles
 SCF Done:  E(RB3LYP) =  -2359.62450309     A.U. after   11 cycles
 SCF Done:  E(RB3LYP) =  -2359.62450230     A.U. after   11 cycles
 SCF Done:  E(RB3LYP) =  -2359.62450092     A.U. after   12 cycles
 SCF Done:  E(RB3LYP) =  -2359.62450926     A.U. after   11 cycles
 SCF Done:  E(RB3LYP) =  -2359.62451132     A.U. after   12 cycles
 SCF Done:  E(RB3LYP) =  -2359.62457891     A.U. after    9 cycles
 SCF Done:  E(RB3LYP) =  -2359.62457930     A.U. after    9 cycles
 SCF Done:  E(RB3LYP) =  -2359.62457945     A.U. after    9 cycles
 SCF Done:  E(RB3LYP) =  -2359.62457954     A.U. after    9 cycles
 SCF Done:  E(RB3LYP) =  -2359.62457954     A.U. after    8 cycles
 SCF Done:  E(RB3LYP) =  -2359.62457958     A.U. after    8 cycles
 SCF Done:  E(RB3LYP) =  -2359.62457955     A.U. after    8 cycles
 SCF Done:  E(RB3LYP) =  -2359.62457961     A.U. after    8 cycles
 SCF Done:  E(RB3LYP) =  -2359.62457957     A.U. after    8 cycles
 SCF Done:  E(RB3LYP) =  -2359.62457963     A.U. after    8 cycles
 Optimization completed.
    -- Stationary point found.

                         Standard orientation:
 ---------------------------------------------------------------------
 Center     Atomic      Atomic             Coordinates (Angstroms)
 Number     Number       Type             X           Y           Z
 ---------------------------------------------------------------------
      1          6           0        3.330945   -2.790160    0.095176
      2          6           0        2.692356   -1.514463   -0.035862
      3          6           0        3.447114   -0.322802    0.092369
      4          6           0        4.840395   -0.366129    0.352113
      5          6           0        5.509646   -1.627176    0.494857
      6          6           0        1.287723   -1.440258   -0.275324
      7          6           0        2.777258    0.951281   -0.055116
      8          6           0        1.375636    0.997834   -0.320442
      9          6           0        0.626857   -0.247093   -0.406383
     10          6           0        0.755521    2.276792   -0.537402
     11          6           0        2.943076    3.421677   -0.099413
     12          6           0        3.553211    2.135487    0.058094
     13          6           0        4.961179    2.057347    0.322710
     14          6           0        5.583958    0.854588    0.465756
     15          1           0        6.647089    0.793987    0.662402
     16          1           0        5.512443    2.986242    0.401536
     17          1           0        0.734164   -2.369467   -0.328269
     18          7           0        1.569841    3.419763   -0.387377
     19          7           0        4.711003   -2.780268    0.358056
     20          8           0        2.746102   -3.897122   -0.006312
     21          8           0        6.737917   -1.748646    0.727536
     22          8           0        3.560687    4.511655   -0.002512
     23          8           0       -0.442554    2.461759   -0.851008
     24          6           0        0.902495    4.708915   -0.582484
     25          1           0        0.528552    4.795144   -1.604750
     26          1           0        0.053022    4.798150    0.095851
     27          1           0        1.627073    5.492263   -0.384957
     28          6           0        5.351223   -4.090279    0.494222
     29          1           0        4.877102   -4.659539    1.295311
     30          1           0        5.249566   -4.659758   -0.431605
     31          1           0        6.400461   -3.928536    0.718479
     32          6           0       -0.841101   -0.317439   -0.604413
     33          6           0       -1.529143   -0.648189   -1.739837
     34         16           0       -1.936649   -0.104115    0.740682
     35          6           0       -2.941263   -0.697171   -1.550038
     36          1           0       -1.036346   -0.826943   -2.684695
     37          6           0       -3.358612   -0.422490   -0.257599
     38          8           0       -3.866921   -0.988519   -2.510168
     39          6           0       -4.706702   -0.390357    0.260646
     40          6           0       -3.402889   -1.206562   -3.845373
     41          6           0       -5.125955   -0.160472    1.564057
     42         16           0       -6.121626   -0.642417   -0.761861
     43          1           0       -4.292271   -1.399007   -4.442477
     44          1           0       -2.887678   -0.322497   -4.231356
     45          1           0       -2.737209   -2.072867   -3.893979
     46          6           0       -6.541120   -0.182876    1.739392
     47          8           0       -4.201274    0.059371    2.543416
     48          6           0       -7.204410   -0.430388    0.571597
     49          1           0       -7.041649   -0.024946    2.683742
     50          6           0       -4.677164    0.299743    3.870170
     51          1           0       -8.269375   -0.506067    0.414191
     52          1           0       -5.238936   -0.559217    4.248418
     53          1           0       -3.790063    0.450580    4.482265
     54          1           0       -5.302511    1.196359    3.907545
 ---------------------------------------------------------------------

 The electronic state is 1-A.
 Alpha  occ. eigenvalues --  -88.87668 -88.86612 -19.15942 -19.15895 -19.06627
 Alpha  occ. eigenvalues --  -19.06597 -19.06495 -19.06196 -14.34582 -14.34362
 Alpha  occ. eigenvalues --  -10.25062 -10.24881 -10.24870 -10.24864 -10.23581
 Alpha  occ. eigenvalues --  -10.23317 -10.22291 -10.22225 -10.20985 -10.20279
 Alpha  occ. eigenvalues --  -10.20253 -10.19853 -10.18514 -10.18379 -10.18118
 Alpha  occ. eigenvalues --  -10.18038 -10.17923 -10.17407 -10.16854 -10.16001
 Alpha  occ. eigenvalues --  -10.15603 -10.15362 -10.15289 -10.15285 -10.15230
 Alpha  occ. eigenvalues --  -10.15164  -7.96232  -7.95190  -5.92540  -5.92157
 Alpha  occ. eigenvalues --   -5.91803  -5.91509  -5.91125  -5.90733  -1.07242
 Alpha  occ. eigenvalues --   -1.07112  -1.02317  -1.02242  -0.99831  -0.99751
 Alpha  occ. eigenvalues --   -0.91066  -0.90837  -0.88938  -0.87358  -0.86072
 Alpha  occ. eigenvalues --   -0.81217  -0.79010  -0.77422  -0.75469  -0.74207
 Alpha  occ. eigenvalues --   -0.73643  -0.72672  -0.71634  -0.71225  -0.69174
 Alpha  occ. eigenvalues --   -0.68717  -0.67929  -0.66308  -0.62505  -0.61739
 Alpha  occ. eigenvalues --   -0.60901  -0.59743  -0.59017  -0.57279  -0.55045
 Alpha  occ. eigenvalues --   -0.54916  -0.53487  -0.53403  -0.52814  -0.50535
 Alpha  occ. eigenvalues --   -0.49363  -0.48346  -0.47417  -0.47102  -0.47080
 Alpha  occ. eigenvalues --   -0.46611  -0.46032  -0.45755  -0.45429  -0.44778
 Alpha  occ. eigenvalues --   -0.44446  -0.44342  -0.44179  -0.42599  -0.42197
 Alpha  occ. eigenvalues --   -0.41600  -0.41079  -0.40904  -0.40529  -0.40321
 Alpha  occ. eigenvalues --   -0.40086  -0.39982  -0.39190  -0.38211  -0.38184
 Alpha  occ. eigenvalues --   -0.37869  -0.37717  -0.37347  -0.36922  -0.36732
 Alpha  occ. eigenvalues --   -0.36439  -0.36210  -0.35132  -0.34696  -0.34522
 Alpha  occ. eigenvalues --   -0.33343  -0.33059  -0.32715  -0.32337  -0.31597
 Alpha  occ. eigenvalues --   -0.30018  -0.27754  -0.26681  -0.26240  -0.25730
 Alpha  occ. eigenvalues --   -0.25511  -0.25033  -0.24370  -0.24199  -0.23977
 Alpha  occ. eigenvalues --   -0.23459  -0.23316  -0.20822  -0.18257  -0.13167
 Alpha virt. eigenvalues --   -0.04222  -0.03450  -0.01136  -0.00371  -0.00054
 Alpha virt. eigenvalues --    0.00386   0.00550   0.00987   0.01196   0.01381
 Alpha virt. eigenvalues --    0.01723   0.02557   0.02704   0.03056   0.03127

 Mulliken charges:
               1
     1  C    0.402693
     2  C   -0.033758
     3  C    0.115867
     4  C    0.182154
     5  C    0.237172
     6  C   -0.747740
     7  C    0.194483
     8  C   -0.153390
     9  C    0.433874
    10  C   -0.238920
    11  C    0.264780
    12  C    0.194522
    13  C   -0.607915
    14  C   -0.635510
    15  H    0.122003
    16  H    0.122952
    17  H    0.116995
    18  N   -0.161954
    19  N   -0.160646
    20  O   -0.526354
    21  O   -0.515451
    22  O   -0.515663
    23  O   -0.391400
    24  C   -0.209331
    25  H    0.160081
    26  H    0.161121
    27  H    0.168669
    28  C   -0.199985
    29  H    0.159367
    30  H    0.159370
    31  H    0.168303
    32  C    0.274385
    33  C   -0.748439
    34  S   -0.271495
    35  C   -0.243095
    36  H    0.133879
    37  C    0.329827
    38  O   -0.162485
    39  C    0.854176
    40  C   -0.255408
    41  C    0.032097
    42  S   -0.233696
    43  H    0.172280
    44  H    0.162722
    45  H    0.160188
    46  C   -0.513021
    47  O   -0.176496
    48  C   -0.359844
    49  H    0.157165
    50  C   -0.247015
    51  H    0.184129
    52  H    0.155548
    53  H    0.170931
    54  H    0.157281
 Sum of Mulliken charges =  -2.00000

 Dipole moment (field-independent basis, Debye):
    X=            -27.9232    Y=             -2.7874    Z=              0.0491  Tot=             28.0620
 Quadrupole moment (field-independent basis, Debye-Ang):
   XX=           -380.1582   YY=           -315.1810   ZZ=           -207.2237
   XY=             -2.8462   XZ=            -23.2871   YZ=              9.1631

 Normal termination of Gaussian 16 at Thu Oct 28 15:17:10 2021.
