 Gaussian 16, Revision C.01,
 Gaussian 16:  ES64L-G16RevC.01  3-Jul-2019

 ---------------------------------------------------------------
 # opt=modredundant b3lyp/6-311+g(d,p) scrf=(pcm, solvent=water)
 ---------------------------------------------------------------

 -----------
 NDI_130.pdb
 -----------
 Symbolic Z-matrix:
 Charge = -2 Multiplicity = 1

 SCF Done:  E(RB3LYP) =  -2359.59984140     A.U. after   17 cycles
 SCF Done:  E(RB3LYP) =  -2359.61723224     A.U. after   16 cycles
 SCF Done:  E(RB3LYP) =  -2359.62355902     A.U. after   14 cycles
 SCF Done:  E(RB3LYP) =  -2359.62472196     A.U. after   13 cycles
 SCF Done:  E(RB3LYP) =  -2359.62485494     A.U. after   12 cycles
 SCF Done:  E(RB3LYP) =  -2359.62516387     A.U. after   12 cycles
 SCF Done:  E(RB3LYP) =  -2359.62519950     A.U. after   12 cycles
 SCF Done:  E(RB3LYP) =  -2359.62521276     A.U. after   11 cycles
 SCF Done:  E(RB3LYP) =  -2359.62522323     A.U. after   10 cycles
 SCF Done:  E(RB3LYP) =  -2359.62525104     A.U. after   11 cycles
 SCF Done:  E(RB3LYP) =  -2359.62529691     A.U. after   10 cycles
 SCF Done:  E(RB3LYP) =  -2359.62529880     A.U. after   10 cycles
 SCF Done:  E(RB3LYP) =  -2359.62529967     A.U. after   10 cycles
 SCF Done:  E(RB3LYP) =  -2359.62530083     A.U. after    9 cycles
 SCF Done:  E(RB3LYP) =  -2359.62530105     A.U. after    9 cycles
 SCF Done:  E(RB3LYP) =  -2359.62530109     A.U. after    8 cycles
 SCF Done:  E(RB3LYP) =  -2359.62530113     A.U. after    7 cycles
 SCF Done:  E(RB3LYP) =  -2359.62530114     A.U. after    8 cycles
 SCF Done:  E(RB3LYP) =  -2359.62530121     A.U. after    8 cycles
 SCF Done:  E(RB3LYP) =  -2359.62530124     A.U. after    8 cycles
 Optimization completed.
    -- Stationary point found.

                         Standard orientation:
 ---------------------------------------------------------------------
 Center     Atomic      Atomic             Coordinates (Angstroms)
 Number     Number       Type             X           Y           Z
 ---------------------------------------------------------------------
      1          6           0        3.456410   -2.707283    0.378983
      2          6           0        2.755374   -1.493727    0.079538
      3          6           0        3.430264   -0.248171    0.138679
      4          6           0        4.798365   -0.175064    0.497818
      5          6           0        5.526423   -1.371654    0.815989
      6          6           0        1.359554   -1.528349   -0.208075
      7          6           0        2.704649    0.958150   -0.193771
      8          6           0        1.329382    0.884725   -0.566313
      9          6           0        0.640036   -0.396101   -0.499253
     10          6           0        0.703510    2.060805   -1.104970
     11          6           0        2.743475    3.407592   -0.549752
     12          6           0        3.405107    2.192772   -0.172150
     13          6           0        4.787806    2.233957    0.205828
     14          6           0        5.461416    1.095221    0.532206
     15          1           0        6.507466    1.122913    0.810813
     16          1           0        5.281763    3.197752    0.215074
     17          1           0        0.849463   -2.479422   -0.121563
     18          7           0        1.421247    3.272703   -0.998108
     19          7           0        4.812052   -2.582700    0.728805
     20          8           0        2.946133   -3.854106    0.351961
     21          8           0        6.734905   -1.388123    1.153449
     22          8           0        3.281310    4.542267   -0.520686
     23          8           0       -0.412996    2.099032   -1.670523
     24          6           0        0.730004    4.471901   -1.476545
     25          1           0        0.626468    4.452207   -2.564537
     26          1           0       -0.268366    4.519230   -1.043068
     27          1           0        1.316725    5.336277   -1.182965
     28          6           0        5.518337   -3.829737    1.030916
     29          1           0        5.079204   -4.313699    1.905810
     30          1           0        5.439740   -4.517765    0.188245
     31          1           0        6.558109   -3.587198    1.224593
     32          6           0       -0.823130   -0.550235   -0.600203
     33          6           0       -1.524449   -1.406493   -1.411323
     34         16           0       -1.900629    0.245006    0.528347
     35          6           0       -2.924535   -1.412282   -1.152449
     36          1           0       -1.046656   -1.996965   -2.179701
     37          6           0       -3.324965   -0.569509   -0.127377
     38          8           0       -3.857796   -2.150057   -1.822305
     39          6           0       -4.660502   -0.333817    0.368014
     40          6           0       -3.408567   -2.994054   -2.885838
     41          6           0       -5.064842    0.493355    1.407863
     42         16           0       -6.080068   -1.120854   -0.323559
     43          1           0       -4.299926   -3.480897   -3.277061
     44          1           0       -2.934496   -2.408613   -3.678663
     45          1           0       -2.710637   -3.751641   -2.518424
     46          6           0       -6.471245    0.498426    1.643094
     47          8           0       -4.134662    1.209727    2.104220
     48          6           0       -7.143988   -0.324613    0.785696
     49          1           0       -6.959081    1.082022    2.410351
     50          6           0       -4.596132    2.051261    3.163880
     51          1           0       -8.205389   -0.514184    0.739738
     52          1           0       -5.093391    1.466358    3.943113
     53          1           0       -3.707615    2.524578    3.577291
     54          1           0       -5.277032    2.820238    2.787647
 ---------------------------------------------------------------------

 The electronic state is 1-A.
 Alpha  occ. eigenvalues --  -88.87628 -88.86480 -19.15902 -19.15873 -19.06773
 Alpha  occ. eigenvalues --  -19.06692 -19.06592 -19.06302 -14.34650 -14.34381
 Alpha  occ. eigenvalues --  -10.25208 -10.24985 -10.24971 -10.24901 -10.23530
 Alpha  occ. eigenvalues --  -10.23275 -10.22273 -10.22211 -10.20962 -10.20239
 Alpha  occ. eigenvalues --  -10.20213 -10.19804 -10.18555 -10.18427 -10.18135
 Alpha  occ. eigenvalues --  -10.18007 -10.17956 -10.17423 -10.16809 -10.15888
 Alpha  occ. eigenvalues --  -10.15738 -10.15491 -10.15383 -10.15359 -10.15317
 Alpha  occ. eigenvalues --  -10.15244  -7.96192  -7.95058  -5.92500  -5.92117
 Alpha  occ. eigenvalues --   -5.91762  -5.91380  -5.90999  -5.90594  -1.07203
 Alpha  occ. eigenvalues --   -1.07089  -1.02441  -1.02302  -0.99979  -0.99830
 Alpha  occ. eigenvalues --   -0.91158  -0.90899  -0.88888  -0.87336  -0.86106
 Alpha  occ. eigenvalues --   -0.81295  -0.79067  -0.77425  -0.75436  -0.74189
 Alpha  occ. eigenvalues --   -0.73694  -0.72709  -0.71642  -0.71218  -0.69159
 Alpha  occ. eigenvalues --   -0.68748  -0.67954  -0.66314  -0.62554  -0.61793
 Alpha  occ. eigenvalues --   -0.60956  -0.59820  -0.58958  -0.57271  -0.55040
 Alpha  occ. eigenvalues --   -0.54899  -0.53531  -0.53390  -0.52850  -0.50598
 Alpha  occ. eigenvalues --   -0.49534  -0.48115  -0.47391  -0.47109  -0.47072
 Alpha  occ. eigenvalues --   -0.46617  -0.46092  -0.45799  -0.45458  -0.44835
 Alpha  occ. eigenvalues --   -0.44456  -0.44344  -0.44164  -0.42739  -0.42216
 Alpha  occ. eigenvalues --   -0.41469  -0.41167  -0.40909  -0.40510  -0.40391
 Alpha  occ. eigenvalues --   -0.40186  -0.39994  -0.39224  -0.38303  -0.38232
 Alpha  occ. eigenvalues --   -0.37910  -0.37655  -0.37434  -0.36931  -0.36828
 Alpha  occ. eigenvalues --   -0.36391  -0.36228  -0.35099  -0.34892  -0.34485
 Alpha  occ. eigenvalues --   -0.33323  -0.33022  -0.32726  -0.32386  -0.31698
 Alpha  occ. eigenvalues --   -0.30092  -0.27790  -0.26715  -0.26362  -0.25785
 Alpha  occ. eigenvalues --   -0.25616  -0.25037  -0.24515  -0.24156  -0.23903
 Alpha  occ. eigenvalues --   -0.23674  -0.23188  -0.20876  -0.18177  -0.13215
 Alpha virt. eigenvalues --   -0.04536  -0.03408  -0.01231  -0.00463  -0.00050
 Alpha virt. eigenvalues --    0.00556   0.00768   0.00958   0.01148   0.01528
 Alpha virt. eigenvalues --    0.01909   0.02591   0.02753   0.03087   0.03163

 Mulliken charges:
               1
     1  C    0.341700
     2  C   -0.137075
     3  C    0.129293
     4  C    0.148285
     5  C    0.225707
     6  C   -0.363933
     7  C    0.208345
     8  C   -0.023942
     9  C    0.261944
    10  C   -0.429159
    11  C    0.271427
    12  C    0.057316
    13  C   -0.508701
    14  C   -0.580513
    15  H    0.122410
    16  H    0.122972
    17  H    0.122242
    18  N   -0.087405
    19  N   -0.157666
    20  O   -0.527628
    21  O   -0.511374
    22  O   -0.517247
    23  O   -0.447091
    24  C   -0.178193
    25  H    0.162182
    26  H    0.162814
    27  H    0.168381
    28  C   -0.199516
    29  H    0.161295
    30  H    0.158885
    31  H    0.168555
    32  C    0.171687
    33  C   -0.534729
    34  S   -0.532178
    35  C   -0.141332
    36  H    0.141977
    37  C    0.429134
    38  O   -0.170341
    39  C    0.815775
    40  C   -0.234536
    41  C    0.006798
    42  S   -0.247558
    43  H    0.172088
    44  H    0.161003
    45  H    0.160286
    46  C   -0.578133
    47  O   -0.170043
    48  C   -0.348776
    49  H    0.156921
    50  C   -0.249234
    51  H    0.183646
    52  H    0.155695
    53  H    0.171049
    54  H    0.156491
 Sum of Mulliken charges =  -2.00000

 Dipole moment (field-independent basis, Debye):
    X=            -27.0279    Y=             -3.1143    Z=              1.2495  Tot=             27.2354
 Quadrupole moment (field-independent basis, Debye-Ang):
   XX=           -374.3033   YY=           -300.0758   ZZ=           -224.6678
   XY=             -9.9822   XZ=            -25.6712   YZ=             27.3264

 Normal termination of Gaussian 16 at Thu Oct 28 14:12:51 2021.
