 Gaussian 16, Revision C.01,
 Gaussian 16:  ES64L-G16RevC.01  3-Jul-2019

 ---------------------------------------------------------------
 # opt=modredundant b3lyp/6-311+g(d,p) scrf=(pcm, solvent=water)
 ---------------------------------------------------------------

 ----------
 NDI_85.pdb
 ----------
 Symbolic Z-matrix:
 Charge = -2 Multiplicity = 1

 SCF Done:  E(RB3LYP) =  -2359.60219866     A.U. after   16 cycles
 SCF Done:  E(RB3LYP) =  -2359.62046189     A.U. after   14 cycles
 SCF Done:  E(RB3LYP) =  -2359.62367226     A.U. after   13 cycles
 SCF Done:  E(RB3LYP) =  -2359.62403606     A.U. after   12 cycles
 SCF Done:  E(RB3LYP) =  -2359.62411791     A.U. after   14 cycles
 SCF Done:  E(RB3LYP) =  -2359.62428885     A.U. after   11 cycles
 SCF Done:  E(RB3LYP) =  -2359.62430754     A.U. after   11 cycles
 SCF Done:  E(RB3LYP) =  -2359.62431771     A.U. after   11 cycles
 SCF Done:  E(RB3LYP) =  -2359.62432277     A.U. after   11 cycles
 SCF Done:  E(RB3LYP) =  -2359.62432690     A.U. after   11 cycles
 SCF Done:  E(RB3LYP) =  -2359.62433082     A.U. after   11 cycles
 SCF Done:  E(RB3LYP) =  -2359.62433425     A.U. after   10 cycles
 SCF Done:  E(RB3LYP) =  -2359.62433529     A.U. after    9 cycles
 SCF Done:  E(RB3LYP) =  -2359.62433592     A.U. after    9 cycles
 SCF Done:  E(RB3LYP) =  -2359.62433631     A.U. after   10 cycles
 SCF Done:  E(RB3LYP) =  -2359.62433668     A.U. after    9 cycles
 SCF Done:  E(RB3LYP) =  -2359.62433715     A.U. after    9 cycles
 SCF Done:  E(RB3LYP) =  -2359.62433741     A.U. after    8 cycles
 Optimization completed.
    -- Stationary point found.

                         Standard orientation:
 ---------------------------------------------------------------------
 Center     Atomic      Atomic             Coordinates (Angstroms)
 Number     Number       Type             X           Y           Z
 ---------------------------------------------------------------------
      1          6           0       -3.123338   -2.844049    0.371340
      2          6           0       -2.578887   -1.523999    0.253964
      3          6           0       -3.430075   -0.421060   -0.001314
      4          6           0       -4.829308   -0.598787   -0.145657
      5          6           0       -5.406813   -1.907331   -0.035357
      6          6           0       -1.176661   -1.313460    0.410512
      7          6           0       -2.851626    0.900174   -0.119437
      8          6           0       -1.442463    1.080454    0.020559
      9          6           0       -0.604788   -0.072015    0.316316
     10          6           0       -0.893256    2.397534   -0.155862
     11          6           0       -3.197469    3.319911   -0.518136
     12          6           0       -3.720371    1.993223   -0.382898
     13          6           0       -5.132745    1.779263   -0.521189
     14          6           0       -5.669714    0.532782   -0.407515
     15          1           0       -6.734979    0.368799   -0.513621
     16          1           0       -5.758770    2.639953   -0.721764
     17          1           0       -0.557447   -2.173941    0.631532
     18          7           0       -1.805089    3.446432   -0.399637
     19          7           0       -4.514220   -2.968017    0.218497
     20          8           0       -2.448724   -3.879111    0.598322
     21          8           0       -6.634464   -2.145347   -0.152018
     22          8           0       -3.901230    4.338173   -0.735720
     23          8           0        0.323083    2.692509   -0.116785
     24          6           0       -1.214978    4.777267   -0.558878
     25          1           0       -0.642956    5.044618    0.330861
     26          1           0       -0.535245    4.791249   -1.412969
     27          1           0       -2.023965    5.483620   -0.713306
     28          6           0       -5.058972   -4.322318    0.336694
     29          1           0       -4.618909   -4.973974   -0.420169
     30          1           0       -4.827290   -4.738782    1.318485
     31          1           0       -6.133683   -4.263197    0.199645
     32          6           0        0.858370    0.009931    0.553630
     33          6           0        1.526714    0.287386    1.714526
     34         16           0        1.977944   -0.428953   -0.712571
     35          6           0        2.941951    0.182961    1.588855
     36          1           0        1.017447    0.572721    2.623807
     37          6           0        3.383630   -0.197826    0.330903
     38          8           0        3.851380    0.405537    2.582371
     39          6           0        4.740274   -0.408516   -0.117742
     40          6           0        3.362189    0.835507    3.855687
     41          6           0        5.182568   -0.804110   -1.372869
     42         16           0        6.135532   -0.174123    0.935260
     43          1           0        4.241349    0.970403    4.482928
     44          1           0        2.825097    1.784251    3.770028
     45          1           0        2.709008    0.080071    4.301457
     46          6           0        6.599496   -0.915827   -1.489250
     47          8           0        4.275654   -1.047952   -2.363196
     48          6           0        7.241394   -0.605912   -0.324347
     49          1           0        7.116259   -1.211054   -2.390965
     50          6           0        4.774095   -1.448706   -3.642061
     51          1           0        8.302672   -0.606107   -0.128539
     52          1           0        5.325270   -2.390872   -3.571830
     53          1           0        3.898486   -1.587080   -4.273345
     54          1           0        5.416279   -0.675696   -4.073933
 ---------------------------------------------------------------------

 The electronic state is 1-A.
 Alpha  occ. eigenvalues --  -88.87666 -88.86765 -19.15948 -19.15897 -19.06625
 Alpha  occ. eigenvalues --  -19.06610 -19.06500 -19.06189 -14.34590 -14.34360
 Alpha  occ. eigenvalues --  -10.25058 -10.24894 -10.24877 -10.24864 -10.23568
 Alpha  occ. eigenvalues --  -10.23341 -10.22294 -10.22224 -10.20989 -10.20266
 Alpha  occ. eigenvalues --  -10.20259 -10.19845 -10.18518 -10.18366 -10.18137
 Alpha  occ. eigenvalues --  -10.18037 -10.17933 -10.17447 -10.16814 -10.16029
 Alpha  occ. eigenvalues --  -10.15620 -10.15354 -10.15312 -10.15302 -10.15238
 Alpha  occ. eigenvalues --  -10.15170  -7.96230  -7.95338  -5.92537  -5.92155
 Alpha  occ. eigenvalues --   -5.91800  -5.91655  -5.91269  -5.90888  -1.07246
 Alpha  occ. eigenvalues --   -1.07118  -1.02323  -1.02245  -0.99837  -0.99743
 Alpha  occ. eigenvalues --   -0.91072  -0.90832  -0.88959  -0.87388  -0.86084
 Alpha  occ. eigenvalues --   -0.81224  -0.79016  -0.77420  -0.75492  -0.74238
 Alpha  occ. eigenvalues --   -0.73608  -0.72712  -0.71632  -0.71247  -0.69188
 Alpha  occ. eigenvalues --   -0.68725  -0.67939  -0.66299  -0.62531  -0.61733
 Alpha  occ. eigenvalues --   -0.60897  -0.59778  -0.59010  -0.57286  -0.55049
 Alpha  occ. eigenvalues --   -0.54924  -0.53488  -0.53406  -0.52826  -0.50574
 Alpha  occ. eigenvalues --   -0.49318  -0.48431  -0.47421  -0.47101  -0.47061
 Alpha  occ. eigenvalues --   -0.46629  -0.46034  -0.45754  -0.45435  -0.44784
 Alpha  occ. eigenvalues --   -0.44447  -0.44339  -0.44216  -0.42529  -0.42195
 Alpha  occ. eigenvalues --   -0.41678  -0.41082  -0.40892  -0.40524  -0.40331
 Alpha  occ. eigenvalues --   -0.40088  -0.39989  -0.39170  -0.38207  -0.38181
 Alpha  occ. eigenvalues --   -0.37937  -0.37752  -0.37319  -0.36912  -0.36782
 Alpha  occ. eigenvalues --   -0.36470  -0.36207  -0.35154  -0.34696  -0.34522
 Alpha  occ. eigenvalues --   -0.33333  -0.33048  -0.32750  -0.32353  -0.31609
 Alpha  occ. eigenvalues --   -0.30078  -0.27764  -0.26684  -0.26243  -0.25728
 Alpha  occ. eigenvalues --   -0.25527  -0.25027  -0.24456  -0.24198  -0.23972
 Alpha  occ. eigenvalues --   -0.23516  -0.23249  -0.20831  -0.18255  -0.13171
 Alpha virt. eigenvalues --   -0.04203  -0.03422  -0.01217  -0.00366  -0.00045
 Alpha virt. eigenvalues --    0.00377   0.00539   0.01013   0.01199   0.01355
 Alpha virt. eigenvalues --    0.01735   0.02560   0.02684   0.03042   0.03166

 Mulliken charges:
               1
     1  C    0.427995
     2  C   -0.034680
     3  C    0.176505
     4  C    0.146218
     5  C    0.244429
     6  C   -0.613757
     7  C    0.196058
     8  C   -0.107128
     9  C    0.502662
    10  C   -0.400000
    11  C    0.190607
    12  C    0.156255
    13  C   -0.577670
    14  C   -0.651592
    15  H    0.121863
    16  H    0.122527
    17  H    0.118134
    18  N   -0.176349
    19  N   -0.162131
    20  O   -0.527968
    21  O   -0.515327
    22  O   -0.515827
    23  O   -0.367460
    24  C   -0.217325
    25  H    0.159209
    26  H    0.159954
    27  H    0.168334
    28  C   -0.199385
    29  H    0.159099
    30  H    0.159517
    31  H    0.167738
    32  C    0.035202
    33  C   -0.544904
    34  S   -0.153558
    35  C   -0.154320
    36  H    0.133787
    37  C    0.281798
    38  O   -0.177900
    39  C    0.738219
    40  C   -0.234180
    41  C    0.037995
    42  S   -0.254195
    43  H    0.172204
    44  H    0.161896
    45  H    0.159152
    46  C   -0.536110
    47  O   -0.178283
    48  C   -0.374880
    49  H    0.157143
    50  C   -0.247319
    51  H    0.183786
    52  H    0.156011
    53  H    0.171089
    54  H    0.156863
 Sum of Mulliken charges =  -2.00000

 Dipole moment (field-independent basis, Debye):
    X=             28.0504    Y=             -2.0642    Z=              0.9911  Tot=             28.1437
 Quadrupole moment (field-independent basis, Debye-Ang):
   XX=           -381.8804   YY=           -313.1003   ZZ=           -208.6561
   XY=             -4.9018   XZ=            -18.5089   YZ=             19.9061

 Normal termination of Gaussian 16 at Thu Oct 28 11:38:27 2021.
