 Gaussian 16, Revision C.01,
 Gaussian 16:  ES64L-G16RevC.01  3-Jul-2019

 ---------------------------------------------------------------
 # opt=modredundant b3lyp/6-311+g(d,p) scrf=(pcm, solvent=water)
 ---------------------------------------------------------------

 ------------
 NDI_-165.pdb
 ------------
 Symbolic Z-matrix:
 Charge = -2 Multiplicity = 1

 SCF Done:  E(RB3LYP) =  -2359.56484205     A.U. after   17 cycles
 SCF Done:  E(RB3LYP) =  -2359.59682348     A.U. after   17 cycles
 SCF Done:  E(RB3LYP) =  -2359.61233565     A.U. after   16 cycles
 SCF Done:  E(RB3LYP) =  -2359.61592004     A.U. after   14 cycles
 SCF Done:  E(RB3LYP) =  -2359.61747506     A.U. after   15 cycles
 SCF Done:  E(RB3LYP) =  -2359.61844627     A.U. after   17 cycles
 SCF Done:  E(RB3LYP) =  -2359.61914733     A.U. after   13 cycles
 SCF Done:  E(RB3LYP) =  -2359.62080848     A.U. after   15 cycles
 SCF Done:  E(RB3LYP) =  -2359.62172886     A.U. after   15 cycles
 SCF Done:  E(RB3LYP) =  -2359.62229079     A.U. after   14 cycles
 SCF Done:  E(RB3LYP) =  -2359.62256508     A.U. after   10 cycles
 SCF Done:  E(RB3LYP) =  -2359.62256716     A.U. after    9 cycles
 SCF Done:  E(RB3LYP) =  -2359.62256918     A.U. after   10 cycles
 SCF Done:  E(RB3LYP) =  -2359.62257035     A.U. after   10 cycles
 SCF Done:  E(RB3LYP) =  -2359.62257054     A.U. after    8 cycles
 SCF Done:  E(RB3LYP) =  -2359.62257067     A.U. after    8 cycles
 SCF Done:  E(RB3LYP) =  -2359.62257077     A.U. after    8 cycles
 SCF Done:  E(RB3LYP) =  -2359.62257093     A.U. after    9 cycles
 SCF Done:  E(RB3LYP) =  -2359.62257097     A.U. after    9 cycles
 SCF Done:  E(RB3LYP) =  -2359.62257102     A.U. after    9 cycles
 Optimization completed.
    -- Stationary point found.

                         Standard orientation:
 ---------------------------------------------------------------------
 Center     Atomic      Atomic             Coordinates (Angstroms)
 Number     Number       Type             X           Y           Z
 ---------------------------------------------------------------------
      1          6           0       -3.563029   -2.651406    0.179861
      2          6           0       -2.810254   -1.456221   -0.072008
      3          6           0       -3.406938   -0.184372    0.125886
      4          6           0       -4.743254   -0.065240    0.571761
      5          6           0       -5.524308   -1.244496    0.836135
      6          6           0       -1.433796   -1.544319   -0.412404
      7          6           0       -2.627594    0.998881   -0.158014
      8          6           0       -1.284549    0.877569   -0.624269
      9          6           0       -0.650266   -0.439817   -0.668102
     10          6           0       -0.672429    2.041489   -1.201214
     11          6           0       -2.553033    3.465190   -0.362110
     12          6           0       -3.255058    2.263880   -0.009816
     13          6           0       -4.605225    2.352614    0.460577
     14          6           0       -5.326213    1.231193    0.746802
     15          1           0       -6.349956    1.294371    1.093931
     16          1           0       -5.039329    3.338995    0.568290
     17          1           0       -0.983108   -2.526628   -0.367552
     18          7           0       -1.290649    3.286548   -0.941549
     19          7           0       -4.889880   -2.481394    0.612432
     20          8           0       -3.121602   -3.817185    0.043351
     21          8           0       -6.710538   -1.219911    1.239197
     22          8           0       -3.014058    4.622996   -0.211288
     23          8           0        0.348150    2.042588   -1.927303
     24          6           0       -0.584812    4.475298   -1.424901
     25          1           0        0.477088    4.380618   -1.206283
     26          1           0       -0.701652    4.589163   -2.506526
     27          1           0       -1.005972    5.343313   -0.927220
     28          6           0       -5.652006   -3.708453    0.855889
     29          1           0       -5.628973   -4.342727   -0.030689
     30          1           0       -5.217770   -4.269314    1.686422
     31          1           0       -6.672502   -3.427624    1.094654
     32          6           0        0.802405   -0.662057   -0.705633
     33          6           0        1.455305   -1.836586   -1.033340
     34         16           0        1.927867    0.442299    0.063313
     35          6           0        2.829069   -1.844991   -0.691915
     36          1           0        0.955556   -2.663843   -1.515539
     37          6           0        3.277313   -0.687603   -0.068455
     38          8           0        3.708891   -2.860844   -0.937807
     39          6           0        4.615496   -0.363337    0.360429
     40          6           0        3.209924   -4.040109   -1.573154
     41          6           0        5.068870    0.784925    0.999079
     42         16           0        5.977284   -1.462653    0.127750
     43          1           0        4.061988   -4.710307   -1.670824
     44          1           0        2.437626   -4.518183   -0.963728
     45          1           0        2.808665   -3.812954   -2.564959
     46          6           0        6.464276    0.785292    1.290618
     47          8           0        4.189859    1.787307    1.295101
     48          6           0        7.082169   -0.361346    0.879365
     49          1           0        6.983821    1.594553    1.783137
     50          6           0        4.702619    2.953486    1.943173
     51          1           0        8.123143   -0.628935    0.975960
     52          1           0        5.453381    3.450908    1.322189
     53          1           0        3.850874    3.616359    2.083012
     54          1           0        5.134678    2.705421    2.917085
 ---------------------------------------------------------------------

 The electronic state is 1-A.
 Alpha  occ. eigenvalues --  -88.87525 -88.86337 -19.15818 -19.15760 -19.07039
 Alpha  occ. eigenvalues --  -19.06891 -19.06676 -19.06352 -14.34785 -14.34397
 Alpha  occ. eigenvalues --  -10.25469 -10.25196 -10.25039 -10.24914 -10.23405
 Alpha  occ. eigenvalues --  -10.23101 -10.22227 -10.22154 -10.20893 -10.20252
 Alpha  occ. eigenvalues --  -10.19975 -10.19691 -10.18636 -10.18492 -10.18183
 Alpha  occ. eigenvalues --  -10.17975 -10.17936 -10.17620 -10.16595 -10.15947
 Alpha  occ. eigenvalues --  -10.15811 -10.15705 -10.15499 -10.15489 -10.15433
 Alpha  occ. eigenvalues --  -10.15335  -7.96090  -7.94901  -5.92398  -5.92016
 Alpha  occ. eigenvalues --   -5.91658  -5.91222  -5.90836  -5.90439  -1.07107
 Alpha  occ. eigenvalues --   -1.06979  -1.02689  -1.02374  -1.00265  -0.99911
 Alpha  occ. eigenvalues --   -0.91347  -0.90972  -0.88766  -0.87266  -0.86144
 Alpha  occ. eigenvalues --   -0.81372  -0.79157  -0.77374  -0.75354  -0.74154
 Alpha  occ. eigenvalues --   -0.73732  -0.72772  -0.71651  -0.71158  -0.69134
 Alpha  occ. eigenvalues --   -0.68776  -0.67984  -0.66282  -0.62652  -0.61882
 Alpha  occ. eigenvalues --   -0.61011  -0.59962  -0.58790  -0.57240  -0.55017
 Alpha  occ. eigenvalues --   -0.54828  -0.53686  -0.53281  -0.52908  -0.50695
 Alpha  occ. eigenvalues --   -0.49751  -0.47745  -0.47326  -0.47104  -0.47010
 Alpha  occ. eigenvalues --   -0.46546  -0.46216  -0.45889  -0.45487  -0.44917
 Alpha  occ. eigenvalues --   -0.44490  -0.44307  -0.44161  -0.42904  -0.42254
 Alpha  occ. eigenvalues --   -0.41292  -0.41152  -0.40913  -0.40547  -0.40393
 Alpha  occ. eigenvalues --   -0.40226  -0.40063  -0.39258  -0.38430  -0.38312
 Alpha  occ. eigenvalues --   -0.38012  -0.37568  -0.37505  -0.37077  -0.37007
 Alpha  occ. eigenvalues --   -0.36249  -0.36130  -0.35230  -0.34876  -0.34456
 Alpha  occ. eigenvalues --   -0.33434  -0.32965  -0.32751  -0.32131  -0.31825
 Alpha  occ. eigenvalues --   -0.30250  -0.27886  -0.26779  -0.26555  -0.25864
 Alpha  occ. eigenvalues --   -0.25768  -0.25085  -0.24606  -0.24375  -0.23941
 Alpha  occ. eigenvalues --   -0.23603  -0.22889  -0.20973  -0.17952  -0.13242
 Alpha virt. eigenvalues --   -0.05134  -0.03344  -0.01503  -0.00545  -0.00081
 Alpha virt. eigenvalues --    0.00613   0.00840   0.01077   0.01567   0.01723
 Alpha virt. eigenvalues --    0.02146   0.02676   0.02760   0.03112   0.03345

 Mulliken charges:
               1
     1  C    0.310389
     2  C   -0.122796
     3  C    0.081782
     4  C    0.209879
     5  C    0.177552
     6  C   -0.010858
     7  C    0.116481
     8  C    0.214427
     9  C    0.219699
    10  C   -0.622451
    11  C    0.306015
    12  C    0.043418
    13  C   -0.523252
    14  C   -0.557398
    15  H    0.123640
    16  H    0.124155
    17  H    0.127609
    18  N   -0.011973
    19  N   -0.157491
    20  O   -0.521560
    21  O   -0.502138
    22  O   -0.515879
    23  O   -0.459003
    24  C   -0.194379
    25  H    0.165390
    26  H    0.163319
    27  H    0.167391
    28  C   -0.196357
    29  H    0.159220
    30  H    0.162541
    31  H    0.167621
    32  C    0.007569
    33  C   -0.575493
    34  S   -0.734297
    35  C   -0.302788
    36  H    0.143773
    37  C    0.674818
    38  O   -0.170861
    39  C    0.815269
    40  C   -0.235422
    41  C   -0.024127
    42  S   -0.223920
    43  H    0.172353
    44  H    0.158952
    45  H    0.158189
    46  C   -0.580413
    47  O   -0.164331
    48  C   -0.336411
    49  H    0.156223
    50  C   -0.250180
    51  H    0.183403
    52  H    0.156379
    53  H    0.171144
    54  H    0.155179
 Sum of Mulliken charges =  -2.00000

 Dipole moment (field-independent basis, Debye):
    X=             25.5295    Y=             -3.7062    Z=              1.8898  Tot=             25.8663
 Quadrupole moment (field-independent basis, Debye-Ang):
   XX=           -367.2626   YY=           -288.1043   ZZ=           -239.8813
   XY=             14.2002   XZ=             26.2162   YZ=             18.8962

 Normal termination of Gaussian 16 at Thu Oct 28 09:44:20 2021.
