 Gaussian 16, Revision C.01,
 Gaussian 16:  ES64L-G16RevC.01  3-Jul-2019

 ---------------------------------------------------------------
 # opt=modredundant b3lyp/6-311+g(d,p) scrf=(pcm, solvent=water)
 ---------------------------------------------------------------

 ----------
 NDI_45.pdb
 ----------
 Symbolic Z-matrix:
 Charge = -2 Multiplicity = 1

 SCF Done:  E(RB3LYP) =  -2359.60135704     A.U. after   16 cycles
 SCF Done:  E(RB3LYP) =  -2359.61720635     A.U. after   15 cycles
 SCF Done:  E(RB3LYP) =  -2359.62147995     A.U. after   15 cycles
 SCF Done:  E(RB3LYP) =  -2359.62342480     A.U. after   15 cycles
 SCF Done:  E(RB3LYP) =  -2359.62451667     A.U. after   16 cycles
 SCF Done:  E(RB3LYP) =  -2359.62390421     A.U. after   17 cycles
 SCF Done:  E(RB3LYP) =  -2359.62528994     A.U. after   16 cycles
 SCF Done:  E(RB3LYP) =  -2359.62535525     A.U. after   12 cycles
 SCF Done:  E(RB3LYP) =  -2359.62538627     A.U. after   13 cycles
 SCF Done:  E(RB3LYP) =  -2359.62540637     A.U. after   12 cycles
 SCF Done:  E(RB3LYP) =  -2359.62541784     A.U. after   12 cycles
 SCF Done:  E(RB3LYP) =  -2359.62542757     A.U. after   10 cycles
 SCF Done:  E(RB3LYP) =  -2359.62543556     A.U. after   11 cycles
 SCF Done:  E(RB3LYP) =  -2359.62544137     A.U. after   11 cycles
 SCF Done:  E(RB3LYP) =  -2359.62544479     A.U. after    9 cycles
 SCF Done:  E(RB3LYP) =  -2359.62544534     A.U. after   10 cycles
 Optimization completed.
    -- Stationary point found.

                         Standard orientation:
 ---------------------------------------------------------------------
 Center     Atomic      Atomic             Coordinates (Angstroms)
 Number     Number       Type             X           Y           Z
 ---------------------------------------------------------------------
      1          6           0       -2.805758   -2.948763    0.387491
      2          6           0       -2.401094   -1.589247    0.179350
      3          6           0       -3.374304   -0.562464    0.082955
      4          6           0       -4.754997   -0.853699    0.194517
      5          6           0       -5.193808   -2.205527    0.408847
      6          6           0       -1.017885   -1.256290    0.150701
      7          6           0       -2.936174    0.795987   -0.150576
      8          6           0       -1.544645    1.088591   -0.276858
      9          6           0       -0.569319    0.030263   -0.036147
     10          6           0       -1.164958    2.393282   -0.747108
     11          6           0       -3.547765    3.156669   -0.578762
     12          6           0       -3.926203    1.804610   -0.286237
     13          6           0       -5.316037    1.479719   -0.153762
     14          6           0       -5.719746    0.199392    0.080973
     15          1           0       -6.769140   -0.050622    0.174650
     16          1           0       -6.035448    2.282784   -0.255689
     17          1           0       -0.311562   -2.047695    0.367701
     18          7           0       -2.181041    3.375597   -0.798114
     19          7           0       -4.187468   -3.188050    0.483830
     20          8           0       -2.019008   -3.921065    0.489312
     21          8           0       -6.397085   -2.540182    0.523763
     22          8           0       -4.358438    4.111613   -0.669044
     23          8           0       -0.022370    2.731224   -1.129975
     24          6           0       -1.753740    4.717829   -1.198995
     25          1           0       -0.906796    5.034046   -0.590484
     26          1           0       -1.440602    4.727614   -2.245974
     27          1           0       -2.594196    5.390667   -1.062531
     28          6           0       -4.589253   -4.581667    0.688142
     29          1           0       -4.193826   -5.207359   -0.113180
     30          1           0       -4.196556   -4.955688    1.635719
     31          1           0       -5.673561   -4.620341    0.695079
     32          6           0        0.863406    0.286888    0.173029
     33          6           0        1.474662    1.234051    0.957357
     34         16           0        2.058537   -0.764659   -0.558008
     35          6           0        2.888026    1.109690    0.993355
     36          1           0        0.919651    1.989863    1.491777
     37          6           0        3.401914    0.069852    0.229712
     38          8           0        3.741557    1.902021    1.706182
     39          6           0        4.778922   -0.324219    0.060658
     40          6           0        3.179780    2.961742    2.484942
     41          6           0        5.294214   -1.359962   -0.708616
     42         16           0        6.111004    0.510753    0.862202
     43          1           0        4.021971    3.462985    2.958340
     44          1           0        2.640897    3.671848    1.851604
     45          1           0        2.508343    2.570264    3.254400
     46          6           0        6.713659   -1.481827   -0.657945
     47          8           0        4.446916   -2.153024   -1.428241
     48          6           0        7.287543   -0.540256    0.148130
     49          1           0        7.280930   -2.229301   -1.193564
     50          6           0        5.019373   -3.205217   -2.208406
     51          1           0        8.334888   -0.398637    0.366207
     52          1           0        5.553160   -3.919466   -1.574780
     53          1           0        4.183704   -3.705428   -2.694077
     54          1           0        5.697592   -2.807118   -2.968778
 ---------------------------------------------------------------------

 The electronic state is 1-A.
 Alpha  occ. eigenvalues --  -88.87582 -88.86710 -19.15880 -19.15822 -19.06866
 Alpha  occ. eigenvalues --  -19.06761 -19.06606 -19.06215 -14.34701 -14.34356
 Alpha  occ. eigenvalues --  -10.25301 -10.25056 -10.24981 -10.24880 -10.23451
 Alpha  occ. eigenvalues --  -10.23258 -10.22262 -10.22170 -10.20947 -10.20118
 Alpha  occ. eigenvalues --  -10.20086 -10.19740 -10.18585 -10.18419 -10.18167
 Alpha  occ. eigenvalues --  -10.17979 -10.17960 -10.17580 -10.16545 -10.15903
 Alpha  occ. eigenvalues --  -10.15822 -10.15560 -10.15410 -10.15403 -10.15343
 Alpha  occ. eigenvalues --  -10.15264  -7.96146  -7.95280  -5.92455  -5.92072
 Alpha  occ. eigenvalues --   -5.91715  -5.91599  -5.91218  -5.90825  -1.07168
 Alpha  occ. eigenvalues --   -1.07046  -1.02529  -1.02296  -1.00082  -0.99823
 Alpha  occ. eigenvalues --   -0.91230  -0.90876  -0.88866  -0.87339  -0.86125
 Alpha  occ. eigenvalues --   -0.81322  -0.79099  -0.77366  -0.75477  -0.74266
 Alpha  occ. eigenvalues --   -0.73492  -0.72872  -0.71594  -0.71244  -0.69153
 Alpha  occ. eigenvalues --   -0.68792  -0.67950  -0.66232  -0.62662  -0.61780
 Alpha  occ. eigenvalues --   -0.60988  -0.59934  -0.58847  -0.57251  -0.55014
 Alpha  occ. eigenvalues --   -0.54872  -0.53536  -0.53329  -0.52882  -0.50722
 Alpha  occ. eigenvalues --   -0.49492  -0.48187  -0.47370  -0.47046  -0.46952
 Alpha  occ. eigenvalues --   -0.46675  -0.46112  -0.45765  -0.45469  -0.44882
 Alpha  occ. eigenvalues --   -0.44450  -0.44296  -0.44206  -0.42589  -0.41986
 Alpha  occ. eigenvalues --   -0.41746  -0.41107  -0.40849  -0.40474  -0.40446
 Alpha  occ. eigenvalues --   -0.40202  -0.40012  -0.39097  -0.38319  -0.38253
 Alpha  occ. eigenvalues --   -0.38177  -0.37699  -0.37383  -0.36953  -0.36904
 Alpha  occ. eigenvalues --   -0.36425  -0.36158  -0.35074  -0.34942  -0.34485
 Alpha  occ. eigenvalues --   -0.33329  -0.32957  -0.32772  -0.32529  -0.31693
 Alpha  occ. eigenvalues --   -0.30305  -0.27866  -0.26701  -0.26391  -0.25811
 Alpha  occ. eigenvalues --   -0.25636  -0.25026  -0.24679  -0.24226  -0.23822
 Alpha  occ. eigenvalues --   -0.23784  -0.22905  -0.20905  -0.18064  -0.13221
 Alpha virt. eigenvalues --   -0.04769  -0.03343  -0.01381  -0.00452  -0.00036
 Alpha virt. eigenvalues --    0.00604   0.00907   0.00934   0.01379   0.01604
 Alpha virt. eigenvalues --    0.01973   0.02604   0.02678   0.03099   0.03192

 Mulliken charges:
               1
     1  C    0.340062
     2  C   -0.211510
     3  C    0.067035
     4  C    0.180075
     5  C    0.215347
     6  C   -0.468244
     7  C    0.212201
     8  C    0.192864
     9  C    0.421941
    10  C   -0.468889
    11  C    0.232892
    12  C    0.083237
    13  C   -0.520654
    14  C   -0.602394
    15  H    0.122956
    16  H    0.123423
    17  H    0.135359
    18  N   -0.100167
    19  N   -0.156501
    20  O   -0.527370
    21  O   -0.506559
    22  O   -0.514860
    23  O   -0.415895
    24  C   -0.184193
    25  H    0.160095
    26  H    0.160907
    27  H    0.167476
    28  C   -0.199388
    29  H    0.159094
    30  H    0.161243
    31  H    0.167930
    32  C    0.068156
    33  C   -0.454987
    34  S   -0.538155
    35  C   -0.326770
    36  H    0.142858
    37  C    0.621176
    38  O   -0.171136
    39  C    0.745519
    40  C   -0.233847
    41  C   -0.001034
    42  S   -0.239130
    43  H    0.172008
    44  H    0.159649
    45  H    0.158899
    46  C   -0.591592
    47  O   -0.169635
    48  C   -0.342062
    49  H    0.156757
    50  C   -0.250555
    51  H    0.183418
    52  H    0.156200
    53  H    0.170924
    54  H    0.155827
 Sum of Mulliken charges =  -2.00000

 Dipole moment (field-independent basis, Debye):
    X=             27.0587    Y=             -0.8845    Z=              1.6815  Tot=             27.1254
 Quadrupole moment (field-independent basis, Debye-Ang):
   XX=           -379.1863   YY=           -294.3625   ZZ=           -228.5173
   XY=            -10.0920   XZ=             -3.3147   YZ=             29.0190

 Normal termination of Gaussian 16 at Thu Oct 28 10:59:54 2021.
