 Gaussian 16, Revision C.01,
 Gaussian 16:  ES64L-G16RevC.01  3-Jul-2019

 ---------------------------------------------------------------
 # opt=modredundant b3lyp/6-311+g(d,p) scrf=(pcm, solvent=water)
 ---------------------------------------------------------------

 -----------
 NDI_155.pdb
 -----------
 Symbolic Z-matrix:
 Charge = -2 Multiplicity = 1

 SCF Done:  E(RB3LYP) =  -2359.57648886     A.U. after   17 cycles
 SCF Done:  E(RB3LYP) =  -2359.60019324     A.U. after   17 cycles
 SCF Done:  E(RB3LYP) =  -2359.61368215     A.U. after   14 cycles
 SCF Done:  E(RB3LYP) =  -2359.61941324     A.U. after   15 cycles
 SCF Done:  E(RB3LYP) =  -2359.62215332     A.U. after   16 cycles
 SCF Done:  E(RB3LYP) =  -2359.62289696     A.U. after   15 cycles
 SCF Done:  E(RB3LYP) =  -2359.62363290     A.U. after   13 cycles
 SCF Done:  E(RB3LYP) =  -2359.62374522     A.U. after   13 cycles
 SCF Done:  E(RB3LYP) =  -2359.62386999     A.U. after   12 cycles
 SCF Done:  E(RB3LYP) =  -2359.62391386     A.U. after   12 cycles
 SCF Done:  E(RB3LYP) =  -2359.62403383     A.U. after    9 cycles
 SCF Done:  E(RB3LYP) =  -2359.62403451     A.U. after    9 cycles
 SCF Done:  E(RB3LYP) =  -2359.62403484     A.U. after    9 cycles
 SCF Done:  E(RB3LYP) =  -2359.62403477     A.U. after    8 cycles
 SCF Done:  E(RB3LYP) =  -2359.62403517     A.U. after    8 cycles
 SCF Done:  E(RB3LYP) =  -2359.62403561     A.U. after    9 cycles
 SCF Done:  E(RB3LYP) =  -2359.62403579     A.U. after    9 cycles
 SCF Done:  E(RB3LYP) =  -2359.62403579     A.U. after    8 cycles
 SCF Done:  E(RB3LYP) =  -2359.62403584     A.U. after    8 cycles
 SCF Done:  E(RB3LYP) =  -2359.62403588     A.U. after    7 cycles
 Optimization completed.
    -- Stationary point found.

                         Standard orientation:
 ---------------------------------------------------------------------
 Center     Atomic      Atomic             Coordinates (Angstroms)
 Number     Number       Type             X           Y           Z
 ---------------------------------------------------------------------
      1          6           0       -3.515500   -2.673510   -0.277237
      2          6           0       -2.784778   -1.472507    0.006568
      3          6           0       -3.411887   -0.207709   -0.132883
      4          6           0       -4.758213   -0.102094   -0.553881
      5          6           0       -5.516273   -1.287078   -0.853632
      6          6           0       -1.401969   -1.542816    0.331363
      7          6           0       -2.655260    0.982904    0.182664
      8          6           0       -1.301253    0.875431    0.619890
      9          6           0       -0.644478   -0.428760    0.614413
     10          6           0       -0.689889    2.036435    1.204268
     11          6           0       -2.628838    3.441745    0.470507
     12          6           0       -3.312037    2.238103    0.091051
     13          6           0       -4.672811    2.313089   -0.351767
     14          6           0       -5.372699    1.186802   -0.668593
     15          1           0       -6.403590    1.239569   -0.995796
     16          1           0       -5.131157    3.292305   -0.414891
     17          1           0       -0.925905   -2.511778    0.258597
     18          7           0       -1.345782    3.273228    1.007446
     19          7           0       -4.852678   -2.517156   -0.682179
     20          8           0       -3.046561   -3.833809   -0.190615
     21          8           0       -6.707492   -1.274666   -1.243854
     22          8           0       -3.120935    4.592825    0.375158
     23          8           0        0.361452    2.041873    1.884356
     24          6           0       -0.648877    4.460525    1.506908
     25          1           0       -0.699063    4.514470    2.598129
     26          1           0        0.399855    4.415765    1.217890
     27          1           0       -1.129038    5.336279    1.081843
     28          6           0       -5.593185   -3.750755   -0.956852
     29          1           0       -5.175492   -4.262761   -1.826810
     30          1           0       -5.523382   -4.423343   -0.101744
     31          1           0       -6.627734   -3.485418   -1.148354
     32          6           0        0.811428   -0.624209    0.670470
     33          6           0        1.482901   -1.735707    1.136922
     34         16           0        1.917300    0.419420   -0.202231
     35          6           0        2.864781   -1.744322    0.817587
     36          1           0        0.991277   -2.514509    1.701541
     37          6           0        3.294214   -0.649714    0.079955
     38          8           0        3.764766   -2.704047    1.184562
     39          6           0        4.630852   -0.339041   -0.365274
     40          6           0        3.285823   -3.816672    1.943928
     41          6           0        5.060824    0.733984   -1.136449
     42         16           0        6.021304   -1.351719    0.030820
     43          1           0        4.152182   -4.450456    2.123974
     44          1           0        2.867791   -3.489602    2.900217
     45          1           0        2.532330   -4.378926    1.385027
     46          6           0        6.461865    0.746232   -1.399992
     47          8           0        4.156499    1.658808   -1.573796
     48          6           0        7.106765   -0.316437   -0.833978
     49          1           0        6.965962    1.503702   -1.982649
     50          6           0        4.644249    2.750335   -2.357342
     51          1           0        8.157552   -0.558345   -0.877564
     52          1           0        5.102931    2.395592   -3.284958
     53          1           0        3.774438    3.360312   -2.593533
     54          1           0        5.366248    3.348044   -1.793371
 ---------------------------------------------------------------------

 The electronic state is 1-A.
 Alpha  occ. eigenvalues --  -88.87557 -88.86359 -19.15840 -19.15790 -19.06960
 Alpha  occ. eigenvalues --  -19.06827 -19.06659 -19.06328 -14.34743 -14.34390
 Alpha  occ. eigenvalues --  -10.25391 -10.25130 -10.25029 -10.24906 -10.23444
 Alpha  occ. eigenvalues --  -10.23153 -10.22239 -10.22167 -10.20910 -10.20221
 Alpha  occ. eigenvalues --  -10.20050 -10.19729 -10.18613 -10.18472 -10.18171
 Alpha  occ. eigenvalues --  -10.17974 -10.17959 -10.17541 -10.16650 -10.15885
 Alpha  occ. eigenvalues --  -10.15823 -10.15644 -10.15463 -10.15452 -10.15400
 Alpha  occ. eigenvalues --  -10.15312  -7.96122  -7.94929  -5.92430  -5.92048
 Alpha  occ. eigenvalues --   -5.91691  -5.91251  -5.90867  -5.90465  -1.07134
 Alpha  occ. eigenvalues --   -1.07006  -1.02614  -1.02358  -1.00177  -0.99893
 Alpha  occ. eigenvalues --   -0.91290  -0.90951  -0.88801  -0.87287  -0.86131
 Alpha  occ. eigenvalues --   -0.81353  -0.79130  -0.77391  -0.75378  -0.74161
 Alpha  occ. eigenvalues --   -0.73721  -0.72753  -0.71644  -0.71175  -0.69135
 Alpha  occ. eigenvalues --   -0.68769  -0.67975  -0.66287  -0.62622  -0.61855
 Alpha  occ. eigenvalues --   -0.60998  -0.59923  -0.58836  -0.57242  -0.55023
 Alpha  occ. eigenvalues --   -0.54846  -0.53631  -0.53308  -0.52890  -0.50664
 Alpha  occ. eigenvalues --   -0.49692  -0.47840  -0.47341  -0.47101  -0.47024
 Alpha  occ. eigenvalues --   -0.46576  -0.46177  -0.45862  -0.45476  -0.44890
 Alpha  occ. eigenvalues --   -0.44475  -0.44321  -0.44151  -0.42854  -0.42242
 Alpha  occ. eigenvalues --   -0.41285  -0.41215  -0.40901  -0.40520  -0.40409
 Alpha  occ. eigenvalues --   -0.40230  -0.40034  -0.39235  -0.38400  -0.38287
 Alpha  occ. eigenvalues --   -0.37974  -0.37584  -0.37495  -0.37018  -0.36949
 Alpha  occ. eigenvalues --   -0.36266  -0.36185  -0.35144  -0.34926  -0.34476
 Alpha  occ. eigenvalues --   -0.33381  -0.32993  -0.32748  -0.32223  -0.31816
 Alpha  occ. eigenvalues --   -0.30200  -0.27847  -0.26761  -0.26501  -0.25834
 Alpha  occ. eigenvalues --   -0.25730  -0.25069  -0.24591  -0.24307  -0.23875
 Alpha  occ. eigenvalues --   -0.23680  -0.22943  -0.20948  -0.18019  -0.13239
 Alpha virt. eigenvalues --   -0.04954  -0.03361  -0.01436  -0.00529  -0.00069
 Alpha virt. eigenvalues --    0.00601   0.00883   0.01062   0.01401   0.01645
 Alpha virt. eigenvalues --    0.02126   0.02623   0.02774   0.03099   0.03318

 Mulliken charges:
               1
     1  C    0.316469
     2  C   -0.125531
     3  C    0.091876
     4  C    0.188561
     5  C    0.193220
     6  C   -0.125984
     7  C    0.156772
     8  C    0.116760
     9  C    0.249057
    10  C   -0.530167
    11  C    0.300556
    12  C    0.031657
    13  C   -0.519251
    14  C   -0.546692
    15  H    0.123440
    16  H    0.123729
    17  H    0.127807
    18  N   -0.040067
    19  N   -0.157951
    20  O   -0.523645
    21  O   -0.505335
    22  O   -0.516163
    23  O   -0.460992
    24  C   -0.188588
    25  H    0.163385
    26  H    0.164488
    27  H    0.167724
    28  C   -0.198458
    29  H    0.162823
    30  H    0.159033
    31  H    0.167940
    32  C    0.074078
    33  C   -0.634745
    34  S   -0.728589
    35  C   -0.187669
    36  H    0.146631
    37  C    0.639911
    38  O   -0.173031
    39  C    0.810771
    40  C   -0.235472
    41  C   -0.005692
    42  S   -0.232735
    43  H    0.172185
    44  H    0.158980
    45  H    0.159695
    46  C   -0.601617
    47  O   -0.165765
    48  C   -0.336205
    49  H    0.156468
    50  C   -0.250272
    51  H    0.183573
    52  H    0.155276
    53  H    0.171132
    54  H    0.156619
 Sum of Mulliken charges =  -2.00000

 Dipole moment (field-independent basis, Debye):
    X=             25.9547    Y=             -3.4884    Z=             -1.7688  Tot=             26.2477
 Quadrupole moment (field-independent basis, Debye-Ang):
   XX=           -369.3057   YY=           -290.8283   ZZ=           -236.1539
   XY=             13.2674   XZ=            -26.3719   YZ=            -23.5040

 Normal termination of Gaussian 16 at Thu Oct 28 16:32:31 2021.
