 Gaussian 16, Revision C.01,
 Gaussian 16:  ES64L-G16RevC.01  3-Jul-2019

 ---------------------------------------------------------------
 # opt=modredundant b3lyp/6-311+g(d,p) scrf=(pcm, solvent=water)
 ---------------------------------------------------------------

 -----------
 NDI_160.pdb
 -----------
 Symbolic Z-matrix:
 Charge = -2 Multiplicity = 1

 SCF Done:  E(RB3LYP) =  -2359.57009455     A.U. after   17 cycles
 SCF Done:  E(RB3LYP) =  -2359.59790730     A.U. after   18 cycles
 SCF Done:  E(RB3LYP) =  -2359.61265971     A.U. after   14 cycles
 SCF Done:  E(RB3LYP) =  -2359.61828425     A.U. after   15 cycles
 SCF Done:  E(RB3LYP) =  -2359.62135826     A.U. after   16 cycles
 SCF Done:  E(RB3LYP) =  -2359.62204637     A.U. after   15 cycles
 SCF Done:  E(RB3LYP) =  -2359.62280895     A.U. after   12 cycles
 SCF Done:  E(RB3LYP) =  -2359.62309090     A.U. after   12 cycles
 SCF Done:  E(RB3LYP) =  -2359.62317681     A.U. after   13 cycles
 SCF Done:  E(RB3LYP) =  -2359.62324975     A.U. after   11 cycles
 SCF Done:  E(RB3LYP) =  -2359.62336993     A.U. after   10 cycles
 SCF Done:  E(RB3LYP) =  -2359.62337012     A.U. after    9 cycles
 SCF Done:  E(RB3LYP) =  -2359.62337038     A.U. after    9 cycles
 SCF Done:  E(RB3LYP) =  -2359.62337058     A.U. after    8 cycles
 SCF Done:  E(RB3LYP) =  -2359.62337083     A.U. after    9 cycles
 SCF Done:  E(RB3LYP) =  -2359.62337097     A.U. after    8 cycles
 SCF Done:  E(RB3LYP) =  -2359.62337100     A.U. after    8 cycles
 SCF Done:  E(RB3LYP) =  -2359.62337098     A.U. after    8 cycles
 SCF Done:  E(RB3LYP) =  -2359.62337095     A.U. after    8 cycles
 SCF Done:  E(RB3LYP) =  -2359.62337090     A.U. after    8 cycles
 Optimization completed.
    -- Stationary point found.

                         Standard orientation:
 ---------------------------------------------------------------------
 Center     Atomic      Atomic             Coordinates (Angstroms)
 Number     Number       Type             X           Y           Z
 ---------------------------------------------------------------------
      1          6           0       -3.534097   -2.664834   -0.232901
      2          6           0       -2.794712   -1.465712    0.037608
      3          6           0       -3.408627   -0.197770   -0.129668
      4          6           0       -4.749945   -0.086829   -0.563746
      5          6           0       -5.517616   -1.270097   -0.847019
      6          6           0       -1.415184   -1.543243    0.371182
      7          6           0       -2.642621    0.990218    0.171704
      8          6           0       -1.294023    0.877225    0.624049
      9          6           0       -0.646672   -0.432947    0.642883
     10          6           0       -0.683937    2.040103    1.205618
     11          6           0       -2.596469    3.453063    0.420725
     12          6           0       -3.286782    2.249766    0.052773
     13          6           0       -4.642064    2.330256   -0.404947
     14          6           0       -5.350530    1.205448   -0.708158
     15          1           0       -6.377613    1.262316   -1.046446
     16          1           0       -5.089743    3.312755   -0.489942
     17          1           0       -0.950021   -2.518141    0.311096
     18          7           0       -1.323267    3.280652    0.978633
     19          7           0       -4.866668   -2.503101   -0.650758
     20          8           0       -3.076470   -3.827528   -0.124180
     21          8           0       -6.706355   -1.252973   -1.243762
     22          8           0       -3.075383    4.607188    0.299609
     23          8           0        0.352460    2.043953    1.908576
     24          6           0       -0.623964    4.469396    1.471365
     25          1           0       -0.709407    4.552697    2.558635
     26          1           0        0.432533    4.400475    1.218560
     27          1           0       -1.075504    5.341671    1.009220
     28          6           0       -5.616070   -3.734408   -0.911467
     29          1           0       -5.194701   -4.264912   -1.768426
     30          1           0       -5.560833   -4.392905   -0.044394
     31          1           0       -6.646222   -3.463009   -1.117605
     32          6           0        0.807823   -0.640106    0.691137
     33          6           0        1.470738   -1.785134    1.088558
     34         16           0        1.922660    0.435972   -0.130271
     35          6           0        2.848297   -1.794109    0.756907
     36          1           0        0.975506   -2.589403    1.612712
     37          6           0        3.286198   -0.666624    0.075054
     38          8           0        3.738866   -2.783447    1.063835
     39          6           0        4.623325   -0.349048   -0.363027
     40          6           0        3.249326   -3.934287    1.756319
     41          6           0        5.063540    0.761738   -1.072849
     42         16           0        6.001272   -1.405007   -0.042560
     43          1           0        4.108671   -4.587847    1.894453
     44          1           0        2.838105   -3.660929    2.732234
     45          1           0        2.487418   -4.452862    1.167322
     46          6           0        6.462157    0.768441   -1.348835
     47          8           0        4.170223    1.724927   -1.445526
     48          6           0        7.095274   -0.336212   -0.854344
     49          1           0        6.973037    1.551959   -1.889648
     50          6           0        4.669622    2.856991   -2.161175
     51          1           0        8.141715   -0.590931   -0.922541
     52          1           0        5.117893    2.555718   -3.112489
     53          1           0        3.807622    3.493240   -2.352427
     54          1           0        5.403506    3.407139   -1.565031
 ---------------------------------------------------------------------

 The electronic state is 1-A.
 Alpha  occ. eigenvalues --  -88.87541 -88.86347 -19.15827 -19.15775 -19.07000
 Alpha  occ. eigenvalues --  -19.06859 -19.06668 -19.06338 -14.34764 -14.34394
 Alpha  occ. eigenvalues --  -10.25429 -10.25163 -10.25034 -10.24910 -10.23426
 Alpha  occ. eigenvalues --  -10.23126 -10.22233 -10.22161 -10.20901 -10.20233
 Alpha  occ. eigenvalues --  -10.20014 -10.19711 -10.18626 -10.18482 -10.18179
 Alpha  occ. eigenvalues --  -10.17975 -10.17947 -10.17580 -10.16621 -10.15915
 Alpha  occ. eigenvalues --  -10.15817 -10.15674 -10.15477 -10.15474 -10.15416
 Alpha  occ. eigenvalues --  -10.15324  -7.96106  -7.94913  -5.92414  -5.92032
 Alpha  occ. eigenvalues --   -5.91674  -5.91235  -5.90851  -5.90451  -1.07119
 Alpha  occ. eigenvalues --   -1.06993  -1.02652  -1.02366  -1.00221  -0.99902
 Alpha  occ. eigenvalues --   -0.91319  -0.90961  -0.88784  -0.87277  -0.86137
 Alpha  occ. eigenvalues --   -0.81363  -0.79143  -0.77383  -0.75366  -0.74157
 Alpha  occ. eigenvalues --   -0.73726  -0.72762  -0.71647  -0.71166  -0.69135
 Alpha  occ. eigenvalues --   -0.68773  -0.67979  -0.66284  -0.62637  -0.61869
 Alpha  occ. eigenvalues --   -0.61005  -0.59943  -0.58812  -0.57240  -0.55020
 Alpha  occ. eigenvalues --   -0.54836  -0.53658  -0.53294  -0.52899  -0.50679
 Alpha  occ. eigenvalues --   -0.49722  -0.47791  -0.47333  -0.47102  -0.47017
 Alpha  occ. eigenvalues --   -0.46561  -0.46196  -0.45875  -0.45481  -0.44903
 Alpha  occ. eigenvalues --   -0.44482  -0.44315  -0.44155  -0.42879  -0.42248
 Alpha  occ. eigenvalues --   -0.41284  -0.41190  -0.40903  -0.40532  -0.40401
 Alpha  occ. eigenvalues --   -0.40230  -0.40047  -0.39245  -0.38418  -0.38299
 Alpha  occ. eigenvalues --   -0.37991  -0.37574  -0.37503  -0.37046  -0.36978
 Alpha  occ. eigenvalues --   -0.36255  -0.36160  -0.35185  -0.34902  -0.34467
 Alpha  occ. eigenvalues --   -0.33411  -0.32982  -0.32743  -0.32175  -0.31824
 Alpha  occ. eigenvalues --   -0.30226  -0.27866  -0.26771  -0.26529  -0.25848
 Alpha  occ. eigenvalues --   -0.25750  -0.25076  -0.24599  -0.24341  -0.23909
 Alpha  occ. eigenvalues --   -0.23640  -0.22913  -0.20961  -0.17986  -0.13241
 Alpha virt. eigenvalues --   -0.05045  -0.03353  -0.01472  -0.00537  -0.00075
 Alpha virt. eigenvalues --    0.00607   0.00862   0.01071   0.01492   0.01677
 Alpha virt. eigenvalues --    0.02143   0.02646   0.02768   0.03107   0.03333

 Mulliken charges:
               1
     1  C    0.313132
     2  C   -0.120364
     3  C    0.086015
     4  C    0.199632
     5  C    0.185470
     6  C   -0.062859
     7  C    0.138510
     8  C    0.163659
     9  C    0.231934
    10  C   -0.572807
    11  C    0.305696
    12  C    0.037146
    13  C   -0.520928
    14  C   -0.551334
    15  H    0.123576
    16  H    0.123947
    17  H    0.127790
    18  N   -0.027074
    19  N   -0.157746
    20  O   -0.522664
    21  O   -0.503955
    22  O   -0.515937
    23  O   -0.460677
    24  C   -0.191980
    25  H    0.163419
    26  H    0.164950
    27  H    0.167542
    28  C   -0.197822
    29  H    0.162871
    30  H    0.159114
    31  H    0.167790
    32  C    0.037856
    33  C   -0.615749
    34  S   -0.739053
    35  C   -0.236610
    36  H    0.145375
    37  C    0.662685
    38  O   -0.172020
    39  C    0.810644
    40  C   -0.235240
    41  C   -0.014584
    42  S   -0.227791
    43  H    0.172269
    44  H    0.158475
    45  H    0.159404
    46  C   -0.592908
    47  O   -0.165183
    48  C   -0.336009
    49  H    0.156352
    50  C   -0.250364
    51  H    0.183514
    52  H    0.155194
    53  H    0.171111
    54  H    0.156590
 Sum of Mulliken charges =  -2.00000

 Dipole moment (field-independent basis, Debye):
    X=             25.7385    Y=             -3.5885    Z=             -1.8414  Tot=             26.0526
 Quadrupole moment (field-independent basis, Debye-Ang):
   XX=           -368.2924   YY=           -289.4034   ZZ=           -238.0739
   XY=             13.7499   XZ=            -26.3727   YZ=            -21.4238

 Normal termination of Gaussian 16 at Thu Oct 28 15:30:27 2021.
