 Gaussian 16, Revision C.01,
 Gaussian 16:  ES64L-G16RevC.01  3-Jul-2019

 ---------------------------------------------------------------
 # opt=modredundant b3lyp/6-311+g(d,p) scrf=(pcm, solvent=water)
 ---------------------------------------------------------------

 ------------
 NDI_-150.pdb
 ------------
 Symbolic Z-matrix:
 Charge = -2 Multiplicity = 1

 SCF Done:  E(RB3LYP) =  -2359.58206049     A.U. after   16 cycles
 SCF Done:  E(RB3LYP) =  -2359.60269880     A.U. after   17 cycles
 SCF Done:  E(RB3LYP) =  -2359.61588163     A.U. after   14 cycles
 SCF Done:  E(RB3LYP) =  -2359.61942155     A.U. after   15 cycles
 SCF Done:  E(RB3LYP) =  -2359.62049292     A.U. after   15 cycles
 SCF Done:  E(RB3LYP) =  -2359.62123735     A.U. after   16 cycles
 SCF Done:  E(RB3LYP) =  -2359.62241770     A.U. after   13 cycles
 SCF Done:  E(RB3LYP) =  -2359.62359118     A.U. after   16 cycles
 SCF Done:  E(RB3LYP) =  -2359.62394233     A.U. after   13 cycles
 SCF Done:  E(RB3LYP) =  -2359.62433473     A.U. after   12 cycles
 SCF Done:  E(RB3LYP) =  -2359.62448447     A.U. after   11 cycles
 SCF Done:  E(RB3LYP) =  -2359.62451069     A.U. after   10 cycles
 SCF Done:  E(RB3LYP) =  -2359.62452755     A.U. after   11 cycles
 SCF Done:  E(RB3LYP) =  -2359.62453805     A.U. after   11 cycles
 SCF Done:  E(RB3LYP) =  -2359.62454468     A.U. after   11 cycles
 SCF Done:  E(RB3LYP) =  -2359.62454670     A.U. after   10 cycles
 SCF Done:  E(RB3LYP) =  -2359.62454779     A.U. after   10 cycles
 SCF Done:  E(RB3LYP) =  -2359.62454838     A.U. after   10 cycles
 SCF Done:  E(RB3LYP) =  -2359.62454853     A.U. after    9 cycles
 SCF Done:  E(RB3LYP) =  -2359.62454855     A.U. after    9 cycles
 Optimization completed.
    -- Stationary point found.

                         Standard orientation:
 ---------------------------------------------------------------------
 Center     Atomic      Atomic             Coordinates (Angstroms)
 Number     Number       Type             X           Y           Z
 ---------------------------------------------------------------------
      1          6           0       -3.502248   -2.679604    0.315431
      2          6           0       -2.778223   -1.477609    0.020190
      3          6           0       -3.416342   -0.215889    0.134132
      4          6           0       -4.768184   -0.114770    0.539673
      5          6           0       -5.519423   -1.300521    0.851606
      6          6           0       -1.392387   -1.542260   -0.295999
      7          6           0       -2.666542    0.976555   -0.191685
      8          6           0       -1.307300    0.873691   -0.613358
      9          6           0       -0.643522   -0.425378   -0.586870
     10          6           0       -0.692356    2.033714   -1.196395
     11          6           0       -2.653575    3.431825   -0.507949
     12          6           0       -3.333199    2.227941   -0.123541
     13          6           0       -4.700044    2.298164    0.301722
     14          6           0       -5.394431    1.170861    0.626427
     15          1           0       -6.429716    1.219999    0.940033
     16          1           0       -5.166936    3.274392    0.345602
     17          1           0       -0.907926   -2.506463   -0.213500
     18          7           0       -1.360978    3.267057   -1.023626
     19          7           0       -4.842902   -2.527593    0.709930
     20          8           0       -3.024364   -3.837764    0.248035
     21          8           0       -6.715280   -1.291855    1.228338
     22          8           0       -3.155439    4.580304   -0.433106
     23          8           0        0.372655    2.041013   -1.854714
     24          6           0       -0.663568    4.454224   -1.522545
     25          1           0        0.377948    4.424886   -1.206352
     26          1           0       -0.686218    4.491639   -2.615305
     27          1           0       -1.163247    5.330843   -1.122620
     28          6           0       -5.573303   -3.762786    1.003611
     29          1           0       -5.522824   -4.438181    0.148887
     30          1           0       -5.132784   -4.270935    1.864139
     31          1           0       -6.603879   -3.499589    1.217897
     32          6           0        0.813687   -0.611295   -0.649880
     33          6           0        1.492635   -1.684575   -1.185104
     34         16           0        1.911803    0.395134    0.273787
     35          6           0        2.878727   -1.692525   -0.878620
     36          1           0        1.004257   -2.434664   -1.790084
     37          6           0        3.300838   -0.635270   -0.085181
     38          8           0        3.786956   -2.618778   -1.305720
     39          6           0        4.637246   -0.333303    0.367392
     40          6           0        3.317576   -3.684979   -2.134648
     41          6           0        5.060143    0.702257    1.191563
     42         16           0        6.036089   -1.307056   -0.091025
     43          1           0        4.190244   -4.295883   -2.358029
     44          1           0        2.572380   -4.290921   -1.611472
     45          1           0        2.892600   -3.300802   -3.066300
     46          6           0        6.462745    0.716692    1.446881
     47          8           0        4.148674    1.592983    1.681508
     48          6           0        7.115567   -0.306830    0.821058
     49          1           0        6.962271    1.447977    2.065787
     50          6           0        4.627625    2.638486    2.530557
     51          1           0        8.169356   -0.538230    0.844759
     52          1           0        5.343149    3.276711    2.003965
     53          1           0        3.752638    3.224590    2.804961
     54          1           0        5.091117    2.230998    3.433767
 ---------------------------------------------------------------------

 The electronic state is 1-A.
 Alpha  occ. eigenvalues --  -88.87572 -88.86377 -19.15854 -19.15806 -19.06920
 Alpha  occ. eigenvalues --  -19.06797 -19.06648 -19.06326 -14.34722 -14.34389
 Alpha  occ. eigenvalues --  -10.25355 -10.25096 -10.25020 -10.24908 -10.23461
 Alpha  occ. eigenvalues --  -10.23179 -10.22247 -10.22174 -10.20920 -10.20215
 Alpha  occ. eigenvalues --  -10.20086 -10.19745 -10.18598 -10.18466 -10.18164
 Alpha  occ. eigenvalues --  -10.17973 -10.17969 -10.17507 -10.16682 -10.15856
 Alpha  occ. eigenvalues --  -10.15831 -10.15613 -10.15448 -10.15431 -10.15383
 Alpha  occ. eigenvalues --  -10.15299  -7.96137  -7.94949  -5.92445  -5.92063
 Alpha  occ. eigenvalues --   -5.91706  -5.91271  -5.90889  -5.90484  -1.07150
 Alpha  occ. eigenvalues --   -1.07023  -1.02576  -1.02349  -1.00135  -0.99884
 Alpha  occ. eigenvalues --   -0.91261  -0.90943  -0.88820  -0.87298  -0.86126
 Alpha  occ. eigenvalues --   -0.81344  -0.79118  -0.77399  -0.75390  -0.74165
 Alpha  occ. eigenvalues --   -0.73716  -0.72744  -0.71642  -0.71184  -0.69139
 Alpha  occ. eigenvalues --   -0.68766  -0.67971  -0.66292  -0.62608  -0.61842
 Alpha  occ. eigenvalues --   -0.60991  -0.59903  -0.58861  -0.57246  -0.55025
 Alpha  occ. eigenvalues --   -0.54857  -0.53606  -0.53324  -0.52881  -0.50650
 Alpha  occ. eigenvalues --   -0.49662  -0.47890  -0.47353  -0.47101  -0.47034
 Alpha  occ. eigenvalues --   -0.46590  -0.46159  -0.45849  -0.45472  -0.44879
 Alpha  occ. eigenvalues --   -0.44470  -0.44327  -0.44148  -0.42831  -0.42237
 Alpha  occ. eigenvalues --   -0.41305  -0.41221  -0.40902  -0.40510  -0.40413
 Alpha  occ. eigenvalues --   -0.40227  -0.40025  -0.39229  -0.38377  -0.38275
 Alpha  occ. eigenvalues --   -0.37964  -0.37596  -0.37480  -0.37007  -0.36919
 Alpha  occ. eigenvalues --   -0.36283  -0.36205  -0.35115  -0.34944  -0.34479
 Alpha  occ. eigenvalues --   -0.33352  -0.32997  -0.32757  -0.32269  -0.31800
 Alpha  occ. eigenvalues --   -0.30175  -0.27833  -0.26753  -0.26469  -0.25830
 Alpha  occ. eigenvalues --   -0.25703  -0.25064  -0.24582  -0.24273  -0.23842
 Alpha  occ. eigenvalues --   -0.23720  -0.22984  -0.20935  -0.18051  -0.13236
 Alpha virt. eigenvalues --   -0.04865  -0.03369  -0.01395  -0.00519  -0.00064
 Alpha virt. eigenvalues --    0.00594   0.00903   0.01047   0.01305   0.01621
 Alpha virt. eigenvalues --    0.02096   0.02608   0.02777   0.03089   0.03292

 Mulliken charges:
               1
     1  C    0.323102
     2  C   -0.136785
     3  C    0.098140
     4  C    0.181150
     5  C    0.199288
     6  C   -0.189500
     7  C    0.171219
     8  C    0.078879
     9  C    0.264283
    10  C   -0.499050
    11  C    0.293030
    12  C    0.029586
    13  C   -0.516827
    14  C   -0.548516
    15  H    0.123196
    16  H    0.123516
    17  H    0.127184
    18  N   -0.050201
    19  N   -0.157791
    20  O   -0.524559
    21  O   -0.506019
    22  O   -0.516544
    23  O   -0.460012
    24  C   -0.185673
    25  H    0.164181
    26  H    0.163278
    27  H    0.167831
    28  C   -0.197003
    29  H    0.159023
    30  H    0.162099
    31  H    0.168167
    32  C    0.102004
    33  C   -0.635540
    34  S   -0.703056
    35  C   -0.148172
    36  H    0.147157
    37  C    0.608197
    38  O   -0.173263
    39  C    0.812666
    40  C   -0.235557
    41  C   -0.000669
    42  S   -0.237046
    43  H    0.172116
    44  H    0.159872
    45  H    0.159539
    46  C   -0.606756
    47  O   -0.166284
    48  C   -0.337106
    49  H    0.156567
    50  C   -0.250002
    51  H    0.183598
    52  H    0.156409
    53  H    0.171195
    54  H    0.155460
 Sum of Mulliken charges =  -2.00000

 Dipole moment (field-independent basis, Debye):
    X=             26.1859    Y=             -3.4024    Z=              1.7108  Tot=             26.4614
 Quadrupole moment (field-independent basis, Debye-Ang):
   XX=           -370.4524   YY=           -292.3895   ZZ=           -234.0514
   XY=             12.7203   XZ=             26.0712   YZ=             25.0883

 Normal termination of Gaussian 16 at Thu Oct 28 10:46:51 2021.
