 Gaussian 16, Revision C.01,
 Gaussian 16:  ES64L-G16RevC.01  3-Jul-2019

 ---------------------------------------------------------------
 # opt=modredundant b3lyp/6-311+g(d,p) scrf=(pcm, solvent=water)
 ---------------------------------------------------------------

 -----------
 NDI_-40.pdb
 -----------
 Symbolic Z-matrix:
 Charge = -2 Multiplicity = 1

 SCF Done:  E(RB3LYP) =  -2359.60619146     A.U. after   17 cycles
 SCF Done:  E(RB3LYP) =  -2359.62179360     A.U. after   14 cycles
 SCF Done:  E(RB3LYP) =  -2359.62437021     A.U. after   14 cycles
 SCF Done:  E(RB3LYP) =  -2359.62416437     A.U. after   14 cycles
 SCF Done:  E(RB3LYP) =  -2359.62509570     A.U. after   12 cycles
 SCF Done:  E(RB3LYP) =  -2359.62525957     A.U. after   13 cycles
 SCF Done:  E(RB3LYP) =  -2359.62529897     A.U. after   12 cycles
 SCF Done:  E(RB3LYP) =  -2359.62531444     A.U. after   11 cycles
 SCF Done:  E(RB3LYP) =  -2359.62532624     A.U. after   11 cycles
 SCF Done:  E(RB3LYP) =  -2359.62533371     A.U. after   11 cycles
 SCF Done:  E(RB3LYP) =  -2359.62535167     A.U. after   10 cycles
 SCF Done:  E(RB3LYP) =  -2359.62535202     A.U. after    9 cycles
 SCF Done:  E(RB3LYP) =  -2359.62535250     A.U. after   10 cycles
 SCF Done:  E(RB3LYP) =  -2359.62535297     A.U. after   10 cycles
 SCF Done:  E(RB3LYP) =  -2359.62535326     A.U. after    9 cycles
 SCF Done:  E(RB3LYP) =  -2359.62535341     A.U. after    8 cycles
 SCF Done:  E(RB3LYP) =  -2359.62535355     A.U. after    9 cycles
 SCF Done:  E(RB3LYP) =  -2359.62535364     A.U. after   10 cycles
 SCF Done:  E(RB3LYP) =  -2359.62535364     A.U. after    8 cycles
 SCF Done:  E(RB3LYP) =  -2359.62535363     A.U. after    8 cycles
 Optimization completed.
    -- Stationary point found.

                         Standard orientation:
 ---------------------------------------------------------------------
 Center     Atomic      Atomic             Coordinates (Angstroms)
 Number     Number       Type             X           Y           Z
 ---------------------------------------------------------------------
      1          6           0        2.791415   -2.959679    0.348947
      2          6           0        2.393604   -1.596615    0.149871
      3          6           0        3.370605   -0.570897    0.083159
      4          6           0        4.748246   -0.866761    0.214516
      5          6           0        5.180224   -2.222594    0.420224
      6          6           0        1.012514   -1.259544    0.108271
      7          6           0        2.938640    0.791190   -0.140371
      8          6           0        1.549832    1.088941   -0.284882
      9          6           0        0.567178    0.030052   -0.070234
     10          6           0        1.183473    2.395696   -0.759936
     11          6           0        3.563595    3.153748   -0.539145
     12          6           0        3.933415    1.798220   -0.250532
     13          6           0        5.319903    1.468715   -0.098184
     14          6           0        5.717126    0.185024    0.129683
     15          1           0        6.764358   -0.067984    0.238313
     16          1           0        6.042586    2.271143   -0.179897
     17          1           0        0.303440   -2.051910    0.312494
     18          7           0        2.202136    3.377017   -0.783362
     19          7           0        4.170892   -3.203761    0.464107
     20          8           0        2.000632   -3.930585    0.427812
     21          8           0        6.380229   -2.561160    0.553695
     22          8           0        4.378145    4.107143   -0.607053
     23          8           0        0.051325    2.736977   -1.170033
     24          6           0        1.786125    4.721862   -1.187541
     25          1           0        1.499408    4.737843   -2.242013
     26          1           0        0.924549    5.035611   -0.598735
     27          1           0        2.623457    5.393137   -1.026303
     28          6           0        4.566259   -4.600765    0.657863
     29          1           0        4.179184   -4.978641    1.606517
     30          1           0        4.160553   -5.218575   -0.144035
     31          1           0        5.650319   -4.645924    0.657334
     32          6           0       -0.862660    0.288829    0.144984
     33          6           0       -1.471568    1.276750    0.880277
     34         16           0       -2.063817   -0.794424   -0.532380
     35          6           0       -2.884346    1.154386    0.929804
     36          1           0       -0.915101    2.059856    1.371446
     37          6           0       -3.402770    0.079499    0.219687
     38          8           0       -3.733910    1.981443    1.607155
     39          6           0       -4.780799   -0.318999    0.072788
     40          6           0       -3.167843    3.077886    2.329931
     41          6           0       -5.301308   -1.386045   -0.649042
     42         16           0       -6.108598    0.554616    0.839829
     43          1           0       -4.007418    3.601691    2.783148
     44          1           0       -2.491897    2.724401    3.113689
     45          1           0       -2.632790    3.756197    1.659585
     46          6           0       -6.720882   -1.501411   -0.589149
     47          8           0       -4.458769   -2.211684   -1.337062
     48          6           0       -7.290021   -0.523838    0.176444
     49          1           0       -7.291691   -2.269916   -1.090113
     50          6           0       -5.036202   -3.300741   -2.060890
     51          1           0       -8.336382   -0.369672    0.390681
     52          1           0       -5.718626   -2.940335   -2.836159
     53          1           0       -4.203600   -3.824953   -2.526104
     54          1           0       -5.566656   -3.982346   -1.389599
 ---------------------------------------------------------------------

 The electronic state is 1-A.
 Alpha  occ. eigenvalues --  -88.87574 -88.86668 -19.15872 -19.15810 -19.06906
 Alpha  occ. eigenvalues --  -19.06787 -19.06617 -19.06206 -14.34721 -14.34355
 Alpha  occ. eigenvalues --  -10.25340 -10.25084 -10.24992 -10.24875 -10.23443
 Alpha  occ. eigenvalues --  -10.23240 -10.22259 -10.22161 -10.20944 -10.20106
 Alpha  occ. eigenvalues --  -10.20066 -10.19731 -10.18598 -10.18421 -10.18178
 Alpha  occ. eigenvalues --  -10.17973 -10.17966 -10.17591 -10.16509 -10.15897
 Alpha  occ. eigenvalues --  -10.15850 -10.15594 -10.15426 -10.15418 -10.15358
 Alpha  occ. eigenvalues --  -10.15277  -7.96138  -7.95239  -5.92446  -5.92064
 Alpha  occ. eigenvalues --   -5.91706  -5.91559  -5.91179  -5.90781  -1.07159
 Alpha  occ. eigenvalues --   -1.07033  -1.02564  -1.02299  -1.00122  -0.99827
 Alpha  occ. eigenvalues --   -0.91257  -0.90877  -0.88849  -0.87323  -0.86127
 Alpha  occ. eigenvalues --   -0.81333  -0.79111  -0.77359  -0.75472  -0.74268
 Alpha  occ. eigenvalues --   -0.73474  -0.72890  -0.71594  -0.71238  -0.69145
 Alpha  occ. eigenvalues --   -0.68801  -0.67954  -0.66223  -0.62679  -0.61788
 Alpha  occ. eigenvalues --   -0.60998  -0.59951  -0.58829  -0.57248  -0.55008
 Alpha  occ. eigenvalues --   -0.54863  -0.53551  -0.53314  -0.52889  -0.50734
 Alpha  occ. eigenvalues --   -0.49517  -0.48154  -0.47363  -0.47039  -0.46937
 Alpha  occ. eigenvalues --   -0.46680  -0.46127  -0.45765  -0.45474  -0.44894
 Alpha  occ. eigenvalues --   -0.44455  -0.44298  -0.44190  -0.42605  -0.41962
 Alpha  occ. eigenvalues --   -0.41749  -0.41103  -0.40840  -0.40495  -0.40439
 Alpha  occ. eigenvalues --   -0.40211  -0.40015  -0.39090  -0.38342  -0.38261
 Alpha  occ. eigenvalues --   -0.38190  -0.37695  -0.37405  -0.36964  -0.36907
 Alpha  occ. eigenvalues --   -0.36407  -0.36145  -0.35063  -0.34953  -0.34489
 Alpha  occ. eigenvalues --   -0.33345  -0.32952  -0.32766  -0.32555  -0.31681
 Alpha  occ. eigenvalues --   -0.30316  -0.27885  -0.26707  -0.26417  -0.25821
 Alpha  occ. eigenvalues --   -0.25652  -0.25031  -0.24685  -0.24255  -0.23848
 Alpha  occ. eigenvalues --   -0.23751  -0.22870  -0.20916  -0.18042  -0.13229
 Alpha virt. eigenvalues --   -0.04849  -0.03351  -0.01392  -0.00461  -0.00038
 Alpha virt. eigenvalues --    0.00610   0.00893   0.00961   0.01460   0.01623
 Alpha virt. eigenvalues --    0.01999   0.02591   0.02710   0.03109   0.03198

 Mulliken charges:
               1
     1  C    0.318000
     2  C   -0.206778
     3  C    0.074774
     4  C    0.183195
     5  C    0.209683
     6  C   -0.413241
     7  C    0.217616
     8  C    0.248559
     9  C    0.392630
    10  C   -0.516602
    11  C    0.239002
    12  C    0.082450
    13  C   -0.521764
    14  C   -0.600047
    15  H    0.123134
    16  H    0.123652
    17  H    0.135446
    18  N   -0.089554
    19  N   -0.155620
    20  O   -0.526903
    21  O   -0.505602
    22  O   -0.514744
    23  O   -0.421126
    24  C   -0.181482
    25  H    0.161082
    26  H    0.160117
    27  H    0.167331
    28  C   -0.200547
    29  H    0.161799
    30  H    0.159048
    31  H    0.167838
    32  C    0.057610
    33  C   -0.473833
    34  S   -0.567496
    35  C   -0.349012
    36  H    0.144740
    37  C    0.626851
    38  O   -0.169945
    39  C    0.767137
    40  C   -0.234483
    41  C    0.007910
    42  S   -0.236426
    43  H    0.172092
    44  H    0.158872
    45  H    0.159563
    46  C   -0.597263
    47  O   -0.168995
    48  C   -0.341165
    49  H    0.156768
    50  C   -0.250479
    51  H    0.183426
    52  H    0.155623
    53  H    0.170947
    54  H    0.156211
 Sum of Mulliken charges =  -2.00000

 Dipole moment (field-independent basis, Debye):
    X=            -26.9221    Y=             -0.8503    Z=              1.6763  Tot=             26.9877
 Quadrupole moment (field-independent basis, Debye-Ang):
   XX=           -378.5516   YY=           -293.0990   ZZ=           -230.0060
   XY=             10.1363   XZ=              1.8763   YZ=             27.8003

 Normal termination of Gaussian 16 at Thu Oct 28 12:00:37 2021.
