 Gaussian 16, Revision C.01,
 Gaussian 16:  ES64L-G16RevC.01  3-Jul-2019

 ---------------------------------------------------------------
 # opt=modredundant b3lyp/6-311+g(d,p) scrf=(pcm, solvent=water)
 ---------------------------------------------------------------

 ------------
 NDI_-170.pdb
 ------------
 Symbolic Z-matrix:
 Charge = -2 Multiplicity = 1

 SCF Done:  E(RB3LYP) =  -2359.55996068     A.U. after   17 cycles
 SCF Done:  E(RB3LYP) =  -2359.59520694     A.U. after   17 cycles
 SCF Done:  E(RB3LYP) =  -2359.61102226     A.U. after   16 cycles
 SCF Done:  E(RB3LYP) =  -2359.61482696     A.U. after   14 cycles
 SCF Done:  E(RB3LYP) =  -2359.61608307     A.U. after   15 cycles
 SCF Done:  E(RB3LYP) =  -2359.61684456     A.U. after   17 cycles
 SCF Done:  E(RB3LYP) =  -2359.61763064     A.U. after   12 cycles
 SCF Done:  E(RB3LYP) =  -2359.61930566     A.U. after   16 cycles
 SCF Done:  E(RB3LYP) =  -2359.61976524     A.U. after   15 cycles
 SCF Done:  E(RB3LYP) =  -2359.62045667     A.U. after   17 cycles
 SCF Done:  E(RB3LYP) =  -2359.62161558     A.U. after   10 cycles
 SCF Done:  E(RB3LYP) =  -2359.62162353     A.U. after   11 cycles
 SCF Done:  E(RB3LYP) =  -2359.62162820     A.U. after   11 cycles
 SCF Done:  E(RB3LYP) =  -2359.62163005     A.U. after   10 cycles
 SCF Done:  E(RB3LYP) =  -2359.62163143     A.U. after   10 cycles
 SCF Done:  E(RB3LYP) =  -2359.62163184     A.U. after   10 cycles
 SCF Done:  E(RB3LYP) =  -2359.62163221     A.U. after   10 cycles
 SCF Done:  E(RB3LYP) =  -2359.62163281     A.U. after   10 cycles
 SCF Done:  E(RB3LYP) =  -2359.62163300     A.U. after   10 cycles
 SCF Done:  E(RB3LYP) =  -2359.62163304     A.U. after    8 cycles
 Optimization completed.
    -- Stationary point found.

                         Standard orientation:
 ---------------------------------------------------------------------
 Center     Atomic      Atomic             Coordinates (Angstroms)
 Number     Number       Type             X           Y           Z
 ---------------------------------------------------------------------
      1          6           0       -3.595077   -2.635177    0.126285
      2          6           0       -2.827762   -1.444698   -0.105015
      3          6           0       -3.407486   -0.169607    0.120329
      4          6           0       -4.739868   -0.041983    0.574385
      5          6           0       -5.534888   -1.216398    0.819778
      6          6           0       -1.453695   -1.543949   -0.448734
      7          6           0       -2.613960    1.007921   -0.145921
      8          6           0       -1.274892    0.877977   -0.621094
      9          6           0       -0.653637   -0.446403   -0.686492
     10          6           0       -0.658259    2.042675   -1.190823
     11          6           0       -2.510812    3.476417   -0.309214
     12          6           0       -3.225256    2.277845    0.027394
     13          6           0       -4.571532    2.375143    0.506348
     14          6           0       -5.305673    1.258006    0.775930
     15          1           0       -6.326892    1.327914    1.129075
     16          1           0       -4.992441    3.364941    0.633540
     17          1           0       -1.019286   -2.533936   -0.418679
     18          7           0       -1.257381    3.291452   -0.905064
     19          7           0       -4.916762   -2.456801    0.571125
     20          8           0       -3.170177   -3.803336   -0.037634
     21          8           0       -6.719105   -1.184094    1.227386
     22          8           0       -2.954874    4.637151   -0.132602
     23          8           0        0.351074    2.041660   -1.932899
     24          6           0       -0.543144    4.478740   -1.379566
     25          1           0        0.520830    4.364990   -1.181548
     26          1           0       -0.677276    4.613947   -2.456759
     27          1           0       -0.943044    5.343560   -0.859198
     28          6           0       -5.692504   -3.678716    0.796789
     29          1           0       -5.704816   -4.285782   -0.109112
     30          1           0       -5.245003   -4.271488    1.597231
     31          1           0       -6.701528   -3.389256    1.071185
     32          6           0        0.797180   -0.685368   -0.711953
     33          6           0        1.437723   -1.887019   -0.964681
     34         16           0        1.936653    0.445568   -0.003039
     35          6           0        2.808267   -1.894415   -0.616159
     36          1           0        0.931650   -2.736646   -1.398579
     37          6           0        3.269603   -0.709036   -0.057367
     38          8           0        3.675114   -2.935054   -0.796891
     39          6           0        4.611182   -0.376716    0.353485
     40          6           0        3.167042   -4.136644   -1.380824
     41          6           0        5.075726    0.795791    0.937983
     42         16           0        5.964509   -1.494857    0.163843
     43          1           0        4.010991   -4.821724   -1.437143
     44          1           0        2.382186   -4.575380   -0.757943
     45          1           0        2.778992   -3.951873   -2.386626
     46          6           0        6.472476    0.799401    1.222683
     47          8           0        4.204895    1.816543    1.193058
     48          6           0        7.080678   -0.368735    0.860222
     49          1           0        6.999767    1.626036    1.676630
     50          6           0        4.729134    3.007300    1.784688
     51          1           0        8.119975   -0.639597    0.965350
     52          1           0        5.479679    3.470840    1.137741
     53          1           0        3.882688    3.681761    1.898967
     54          1           0        5.165146    2.800691    2.766491
 ---------------------------------------------------------------------

 The electronic state is 1-A.
 Alpha  occ. eigenvalues --  -88.87508 -88.86316 -19.15805 -19.15738 -19.07078
 Alpha  occ. eigenvalues --  -19.06927 -19.06682 -19.06359 -14.34805 -14.34399
 Alpha  occ. eigenvalues --  -10.25508 -10.25230 -10.25042 -10.24909 -10.23385
 Alpha  occ. eigenvalues --  -10.23065 -10.22219 -10.22143 -10.20877 -10.20270
 Alpha  occ. eigenvalues --  -10.19917 -10.19675 -10.18646 -10.18498 -10.18187
 Alpha  occ. eigenvalues --  -10.17973 -10.17925 -10.17664 -10.16564 -10.15977
 Alpha  occ. eigenvalues --  -10.15809 -10.15736 -10.15523 -10.15500 -10.15448
 Alpha  occ. eigenvalues --  -10.15345  -7.96073  -7.94876  -5.92381  -5.91999
 Alpha  occ. eigenvalues --   -5.91641  -5.91197  -5.90809  -5.90416  -1.07091
 Alpha  occ. eigenvalues --   -1.06957  -1.02727  -1.02380  -1.00309  -0.99917
 Alpha  occ. eigenvalues --   -0.91377  -0.90982  -0.88744  -0.87249  -0.86148
 Alpha  occ. eigenvalues --   -0.81376  -0.79169  -0.77361  -0.75340  -0.74149
 Alpha  occ. eigenvalues --   -0.73732  -0.72780  -0.71654  -0.71146  -0.69131
 Alpha  occ. eigenvalues --   -0.68775  -0.67987  -0.66277  -0.62666  -0.61893
 Alpha  occ. eigenvalues --   -0.61016  -0.59980  -0.58764  -0.57235  -0.55013
 Alpha  occ. eigenvalues --   -0.54815  -0.53713  -0.53265  -0.52915  -0.50708
 Alpha  occ. eigenvalues --   -0.49776  -0.47698  -0.47315  -0.47103  -0.46998
 Alpha  occ. eigenvalues --   -0.46525  -0.46235  -0.45901  -0.45491  -0.44930
 Alpha  occ. eigenvalues --   -0.44497  -0.44300  -0.44166  -0.42927  -0.42258
 Alpha  occ. eigenvalues --   -0.41301  -0.41104  -0.40921  -0.40566  -0.40379
 Alpha  occ. eigenvalues --   -0.40219  -0.40077  -0.39266  -0.38438  -0.38325
 Alpha  occ. eigenvalues --   -0.38031  -0.37564  -0.37505  -0.37113  -0.37030
 Alpha  occ. eigenvalues --   -0.36246  -0.36080  -0.35279  -0.34838  -0.34441
 Alpha  occ. eigenvalues --   -0.33448  -0.32950  -0.32770  -0.32090  -0.31810
 Alpha  occ. eigenvalues --   -0.30263  -0.27899  -0.26784  -0.26579  -0.25877
 Alpha  occ. eigenvalues --   -0.25783  -0.25094  -0.24605  -0.24409  -0.23971
 Alpha  occ. eigenvalues --   -0.23568  -0.22854  -0.20982  -0.17920  -0.13241
 Alpha virt. eigenvalues --   -0.05223  -0.03331  -0.01545  -0.00552  -0.00087
 Alpha virt. eigenvalues --    0.00622   0.00825   0.01086   0.01629   0.01795
 Alpha virt. eigenvalues --    0.02146   0.02699   0.02765   0.03120   0.03346

 Mulliken charges:
               1
     1  C    0.303842
     2  C   -0.135318
     3  C    0.081344
     4  C    0.216494
     5  C    0.167232
     6  C    0.040623
     7  C    0.096591
     8  C    0.249251
     9  C    0.213194
    10  C   -0.657923
    11  C    0.304105
    12  C    0.053887
    13  C   -0.523989
    14  C   -0.561462
    15  H    0.123674
    16  H    0.124382
    17  H    0.127754
    18  N    0.000153
    19  N   -0.157370
    20  O   -0.520064
    21  O   -0.500192
    22  O   -0.515992
    23  O   -0.456339
    24  C   -0.194093
    25  H    0.165668
    26  H    0.163115
    27  H    0.167294
    28  C   -0.195076
    29  H    0.159358
    30  H    0.162148
    31  H    0.167422
    32  C    0.010300
    33  C   -0.484107
    34  S   -0.739112
    35  C   -0.426695
    36  H    0.141980
    37  C    0.652763
    38  O   -0.169814
    39  C    0.809563
    40  C   -0.237053
    41  C   -0.006507
    42  S   -0.224592
    43  H    0.172339
    44  H    0.158017
    45  H    0.158527
    46  C   -0.557711
    47  O   -0.163499
    48  C   -0.335994
    49  H    0.156095
    50  C   -0.250070
    51  H    0.183241
    52  H    0.156656
    53  H    0.171051
    54  H    0.154907
 Sum of Mulliken charges =  -2.00000

 Dipole moment (field-independent basis, Debye):
    X=             25.3162    Y=             -3.8329    Z=              1.9454  Tot=             25.6785
 Quadrupole moment (field-independent basis, Debye-Ang):
   XX=           -366.4575   YY=           -287.0704   ZZ=           -241.3086
   XY=             14.6653   XZ=             25.8113   YZ=             16.4173

 Normal termination of Gaussian 16 at Thu Oct 28 09:11:37 2021.
