 Gaussian 16, Revision C.01,
 Gaussian 16:  ES64L-G16RevC.01  3-Jul-2019

 ---------------------------------------------------------------
 # opt=modredundant b3lyp/6-311+g(d,p) scrf=(pcm, solvent=water)
 ---------------------------------------------------------------

 ------------
 NDI_-110.pdb
 ------------
 Symbolic Z-matrix:
 Charge = -2 Multiplicity = 1

 SCF Done:  E(RB3LYP) =  -2359.60200842     A.U. after   17 cycles
 SCF Done:  E(RB3LYP) =  -2359.62085301     A.U. after   15 cycles
 SCF Done:  E(RB3LYP) =  -2359.62419748     A.U. after   16 cycles
 SCF Done:  E(RB3LYP) =  -2359.62423778     A.U. after   14 cycles
 SCF Done:  E(RB3LYP) =  -2359.62466795     A.U. after   13 cycles
 SCF Done:  E(RB3LYP) =  -2359.62475442     A.U. after   13 cycles
 SCF Done:  E(RB3LYP) =  -2359.62477553     A.U. after   12 cycles
 SCF Done:  E(RB3LYP) =  -2359.62478714     A.U. after   11 cycles
 SCF Done:  E(RB3LYP) =  -2359.62479481     A.U. after   12 cycles
 SCF Done:  E(RB3LYP) =  -2359.62479972     A.U. after   11 cycles
 SCF Done:  E(RB3LYP) =  -2359.62480447     A.U. after   11 cycles
 SCF Done:  E(RB3LYP) =  -2359.62480850     A.U. after   11 cycles
 SCF Done:  E(RB3LYP) =  -2359.62481245     A.U. after   11 cycles
 SCF Done:  E(RB3LYP) =  -2359.62476153     A.U. after   10 cycles
 SCF Done:  E(RB3LYP) =  -2359.62476236     A.U. after   10 cycles
 SCF Done:  E(RB3LYP) =  -2359.62476289     A.U. after   10 cycles
 SCF Done:  E(RB3LYP) =  -2359.62476317     A.U. after    9 cycles
 SCF Done:  E(RB3LYP) =  -2359.62476334     A.U. after    9 cycles
 SCF Done:  E(RB3LYP) =  -2359.62476341     A.U. after    8 cycles
 Optimization completed.
    -- Stationary point found.

                         Standard orientation:
 ---------------------------------------------------------------------
 Center     Atomic      Atomic             Coordinates (Angstroms)
 Number     Number       Type             X           Y           Z
 ---------------------------------------------------------------------
      1          6           0       -3.359315   -2.769941    0.246260
      2          6           0       -2.707299   -1.510640    0.042024
      3          6           0       -3.446503   -0.304503    0.116366
      4          6           0       -4.836738   -0.316989    0.393849
      5          6           0       -5.519922   -1.560904    0.605326
      6          6           0       -1.303311   -1.465640   -0.206693
      7          6           0       -2.763975    0.951679   -0.106983
      8          6           0       -1.366186    0.966440   -0.395678
      9          6           0       -0.629622   -0.288917   -0.407606
     10          6           0       -0.742481    2.220298   -0.721008
     11          6           0       -2.903017    3.417456   -0.288594
     12          6           0       -3.525018    2.149473   -0.048833
     13          6           0       -4.929726    2.102691    0.238922
     14          6           0       -5.564314    0.916897    0.454276
     15          1           0       -6.625324    0.879428    0.667898
     16          1           0       -5.469908    3.040633    0.274171
     17          1           0       -0.758549   -2.401492   -0.201216
     18          7           0       -1.538104    3.381143   -0.611199
     19          7           0       -4.737851   -2.729681    0.514863
     20          8           0       -2.787576   -3.887403    0.201613
     21          8           0       -6.746735   -1.654663    0.856803
     22          8           0       -3.504384    4.519450   -0.235972
     23          8           0        0.442255    2.368908   -1.097950
     24          6           0       -0.864494    4.647685   -0.906831
     25          1           0        0.032484    4.745167   -0.294787
     26          1           0       -0.563555    4.686993   -1.956215
     27          1           0       -1.559792    5.452863   -0.692465
     28          6           0       -5.395184   -4.022847    0.715517
     29          1           0       -5.257881   -4.654914   -0.163260
     30          1           0       -4.963210   -4.538801    1.575090
     31          1           0       -6.451149   -3.838735    0.883974
     32          6           0        0.837723   -0.388660   -0.587908
     33          6           0        1.526439   -0.877405   -1.665263
     34         16           0        1.932991    0.003309    0.717314
     35          6           0        2.937435   -0.911693   -1.465461
     36          1           0        1.034607   -1.180561   -2.578338
     37          6           0        3.354052   -0.463679   -0.222216
     38          8           0        3.862928   -1.337871   -2.374073
     39          6           0        4.700616   -0.375057    0.292827
     40          6           0        3.395586   -1.770402   -3.654741
     41          6           0        5.121099    0.058740    1.542901
     42         16           0        6.111915   -0.835345   -0.659833
     43          1           0        4.283617   -2.055829   -4.215521
     44          1           0        2.731137   -2.633778   -3.559533
     45          1           0        2.877617   -0.961559   -4.177692
     46          6           0        6.534166    0.025832    1.732489
     47          8           0        4.199524    0.465646    2.463566
     48          6           0        7.194838   -0.433706    0.629194
     49          1           0        7.034732    0.327014    2.641329
     50          6           0        4.678873    0.924414    3.730124
     51          1           0        8.257891   -0.562876    0.495468
     52          1           0        5.326127    1.798285    3.612519
     53          1           0        3.794806    1.201760    4.300955
     54          1           0        5.219121    0.132482    4.256809
 ---------------------------------------------------------------------

 The electronic state is 1-A.
 Alpha  occ. eigenvalues --  -88.87664 -88.86581 -19.15936 -19.15899 -19.06651
 Alpha  occ. eigenvalues --  -19.06617 -19.06512 -19.06217 -14.34597 -14.34366
 Alpha  occ. eigenvalues --  -10.25084 -10.24903 -10.24887 -10.24875 -10.23573
 Alpha  occ. eigenvalues --  -10.23313 -10.22286 -10.22224 -10.20983 -10.20277
 Alpha  occ. eigenvalues --  -10.20255 -10.19847 -10.18523 -10.18384 -10.18129
 Alpha  occ. eigenvalues --  -10.18033 -10.17933 -10.17417 -10.16862 -10.15996
 Alpha  occ. eigenvalues --  -10.15620 -10.15382 -10.15309 -10.15298 -10.15247
 Alpha  occ. eigenvalues --  -10.15180  -7.96228  -7.95160  -5.92535  -5.92153
 Alpha  occ. eigenvalues --   -5.91798  -5.91480  -5.91097  -5.90702  -1.07241
 Alpha  occ. eigenvalues --   -1.07115  -1.02338  -1.02256  -0.99856  -0.99767
 Alpha  occ. eigenvalues --   -0.91084  -0.90848  -0.88934  -0.87356  -0.86080
 Alpha  occ. eigenvalues --   -0.81233  -0.79021  -0.77429  -0.75464  -0.74205
 Alpha  occ. eigenvalues --   -0.73657  -0.72679  -0.71638  -0.71225  -0.69175
 Alpha  occ. eigenvalues --   -0.68724  -0.67939  -0.66312  -0.62514  -0.61752
 Alpha  occ. eigenvalues --   -0.60913  -0.59755  -0.59013  -0.57282  -0.55044
 Alpha  occ. eigenvalues --   -0.54917  -0.53494  -0.53409  -0.52822  -0.50546
 Alpha  occ. eigenvalues --   -0.49400  -0.48307  -0.47414  -0.47103  -0.47088
 Alpha  occ. eigenvalues --   -0.46615  -0.46044  -0.45764  -0.45436  -0.44789
 Alpha  occ. eigenvalues --   -0.44448  -0.44343  -0.44177  -0.42626  -0.42202
 Alpha  occ. eigenvalues --   -0.41585  -0.41093  -0.40908  -0.40529  -0.40332
 Alpha  occ. eigenvalues --   -0.40111  -0.39983  -0.39200  -0.38227  -0.38197
 Alpha  occ. eigenvalues --   -0.37874  -0.37701  -0.37372  -0.36917  -0.36754
 Alpha  occ. eigenvalues --   -0.36442  -0.36219  -0.35132  -0.34729  -0.34521
 Alpha  occ. eigenvalues --   -0.33321  -0.33045  -0.32706  -0.32384  -0.31610
 Alpha  occ. eigenvalues --   -0.30031  -0.27764  -0.26689  -0.26265  -0.25741
 Alpha  occ. eigenvalues --   -0.25537  -0.25031  -0.24404  -0.24167  -0.23990
 Alpha  occ. eigenvalues --   -0.23509  -0.23288  -0.20836  -0.18249  -0.13178
 Alpha virt. eigenvalues --   -0.04275  -0.03446  -0.01135  -0.00388  -0.00044
 Alpha virt. eigenvalues --    0.00425   0.00564   0.00981   0.01190   0.01420
 Alpha virt. eigenvalues --    0.01759   0.02588   0.02710   0.03073   0.03138

 Mulliken charges:
               1
     1  C    0.395161
     2  C   -0.027953
     3  C    0.183284
     4  C    0.138947
     5  C    0.252571
     6  C   -0.479267
     7  C    0.209398
     8  C   -0.179414
     9  C    0.243395
    10  C   -0.328738
    11  C    0.219839
    12  C    0.126783
    13  C   -0.530896
    14  C   -0.639595
    15  H    0.121883
    16  H    0.122665
    17  H    0.118116
    18  N   -0.149998
    19  N   -0.158861
    20  O   -0.528228
    21  O   -0.515492
    22  O   -0.516351
    23  O   -0.410872
    24  C   -0.205262
    25  H    0.161450
    26  H    0.160242
    27  H    0.168520
    28  C   -0.201151
    29  H    0.159042
    30  H    0.160080
    31  H    0.168274
    32  C    0.098037
    33  C   -0.377908
    34  S   -0.334202
    35  C   -0.169719
    36  H    0.134584
    37  C    0.274075
    38  O   -0.169532
    39  C    0.778610
    40  C   -0.235828
    41  C    0.015634
    42  S   -0.252061
    43  H    0.172138
    44  H    0.160087
    45  H    0.161913
    46  C   -0.532811
    47  O   -0.175313
    48  C   -0.362022
    49  H    0.157144
    50  C   -0.247709
    51  H    0.183739
    52  H    0.156885
    53  H    0.170988
    54  H    0.155699
 Sum of Mulliken charges =  -2.00000

 Dipole moment (field-independent basis, Debye):
    X=             27.8025    Y=             -2.8580    Z=              0.3076  Tot=             27.9507
 Quadrupole moment (field-independent basis, Debye-Ang):
   XX=           -379.1854   YY=           -311.7655   ZZ=           -211.0256
   XY=              5.2212   XZ=             23.9878   YZ=             17.8035

 Normal termination of Gaussian 16 at Thu Oct 28 09:15:26 2021.
