 Gaussian 16, Revision C.01,
 Gaussian 16:  ES64L-G16RevC.01  3-Jul-2019

 ---------------------------------------------------------------
 # opt=modredundant b3lyp/6-311+g(d,p) scrf=(pcm, solvent=water)
 ---------------------------------------------------------------

 ------------
 NDI_-120.pdb
 ------------
 Symbolic Z-matrix:
 Charge = -2 Multiplicity = 1

 SCF Done:  E(RB3LYP) =  -2359.60065984     A.U. after   17 cycles
 SCF Done:  E(RB3LYP) =  -2359.61958407     A.U. after   16 cycles
 SCF Done:  E(RB3LYP) =  -2359.62345094     A.U. after   15 cycles
 SCF Done:  E(RB3LYP) =  -2359.62451989     A.U. after   14 cycles
 SCF Done:  E(RB3LYP) =  -2359.62480742     A.U. after   13 cycles
 SCF Done:  E(RB3LYP) =  -2359.62501655     A.U. after   13 cycles
 SCF Done:  E(RB3LYP) =  -2359.62509756     A.U. after   12 cycles
 SCF Done:  E(RB3LYP) =  -2359.62511673     A.U. after   11 cycles
 SCF Done:  E(RB3LYP) =  -2359.62512577     A.U. after   11 cycles
 SCF Done:  E(RB3LYP) =  -2359.62513531     A.U. after   12 cycles
 SCF Done:  E(RB3LYP) =  -2359.62515169     A.U. after   11 cycles
 SCF Done:  E(RB3LYP) =  -2359.62515670     A.U. after   11 cycles
 SCF Done:  E(RB3LYP) =  -2359.62515733     A.U. after    9 cycles
 SCF Done:  E(RB3LYP) =  -2359.62515743     A.U. after   10 cycles
 SCF Done:  E(RB3LYP) =  -2359.62515731     A.U. after    9 cycles
 SCF Done:  E(RB3LYP) =  -2359.62515726     A.U. after    9 cycles
 SCF Done:  E(RB3LYP) =  -2359.62515729     A.U. after    8 cycles
 SCF Done:  E(RB3LYP) =  -2359.62515738     A.U. after    9 cycles
 SCF Done:  E(RB3LYP) =  -2359.62515744     A.U. after    9 cycles
 SCF Done:  E(RB3LYP) =  -2359.62515745     A.U. after    9 cycles
 Optimization completed.
    -- Stationary point found.

                         Standard orientation:
 ---------------------------------------------------------------------
 Center     Atomic      Atomic             Coordinates (Angstroms)
 Number     Number       Type             X           Y           Z
 ---------------------------------------------------------------------
      1          6           0       -3.425016   -2.728098    0.353562
      2          6           0       -2.740544   -1.497810    0.086752
      3          6           0       -3.440983   -0.266784    0.137226
      4          6           0       -4.820841   -0.224847    0.457186
      5          6           0       -5.535219   -1.438941    0.733705
      6          6           0       -1.339435   -1.503517   -0.179192
      7          6           0       -2.729909    0.957396   -0.161093
      8          6           0       -1.343025    0.916095   -0.495041
      9          6           0       -0.636345   -0.355473   -0.442067
     10          6           0       -0.710784    2.122076   -0.955506
     11          6           0       -2.806911    3.412052   -0.475544
     12          6           0       -3.454294    2.178544   -0.138714
     13          6           0       -4.847369    2.188311    0.203228
     14          6           0       -5.508291    1.032659    0.492648
     15          1           0       -6.561486    1.037458    0.744734
     16          1           0       -5.358725    3.142968    0.216882
     17          1           0       -0.816253   -2.449444   -0.116440
     18          7           0       -1.464526    3.313123   -0.871478
     19          7           0       -4.793773   -2.634732    0.657936
     20          8           0       -2.889563   -3.863908    0.333449
     21          8           0       -6.755101   -1.484459    1.026269
     22          8           0       -3.371146    4.534243   -0.451849
     23          8           0        0.443870    2.203686   -1.433231
     24          6           0       -0.778902    4.535226   -1.297267
     25          1           0        0.168310    4.634746   -0.767237
     26          1           0       -0.565698    4.503515   -2.368339
     27          1           0       -1.428308    5.376177   -1.077112
     28          6           0       -5.486256   -3.898782    0.918030
     29          1           0       -5.371785   -4.570606    0.066345
     30          1           0       -5.064571   -4.390469    1.797007
     31          1           0       -6.535356   -3.677311    1.084686
     32          6           0        0.828978   -0.493873   -0.578462
     33          6           0        1.524825   -1.198707   -1.525502
     34         16           0        1.914818    0.135319    0.640973
     35          6           0        2.931297   -1.215687   -1.297391
     36          1           0        1.040115   -1.670367   -2.368123
     37          6           0        3.339372   -0.533340   -0.162344
     38          8           0        3.861311   -1.826532   -2.088341
     39          6           0        4.681327   -0.352856    0.340272
     40          6           0        3.404522   -2.493838   -3.267938
     41          6           0        5.092828    0.306358    1.491143
     42         16           0        6.099952   -0.982808   -0.498145
     43          1           0        4.294880   -2.898949   -3.745133
     44          1           0        2.721234   -3.310354   -3.018081
     45          1           0        2.911188   -1.794588   -3.948916
     46          6           0        6.504273    0.309515    1.694824
     47          8           0        4.164799    0.877262    2.313123
     48          6           0        7.173222   -0.347636    0.702034
     49          1           0        6.998053    0.774589    2.535767
     50          6           0        4.634954    1.566259    3.474359
     51          1           0        8.237002   -0.500754    0.604197
     52          1           0        5.284320    2.402470    3.199540
     53          1           0        3.746854    1.946099    3.975716
     54          1           0        5.169790    0.887771    4.145261
 ---------------------------------------------------------------------

 The electronic state is 1-A.
 Alpha  occ. eigenvalues --  -88.87646 -88.86520 -19.15917 -19.15883 -19.06705
 Alpha  occ. eigenvalues --  -19.06653 -19.06551 -19.06253 -14.34621 -14.34374
 Alpha  occ. eigenvalues --  -10.25141 -10.24943 -10.24931 -10.24885 -10.23555
 Alpha  occ. eigenvalues --  -10.23294 -10.22279 -10.22217 -10.20974 -10.20250
 Alpha  occ. eigenvalues --  -10.20245 -10.19828 -10.18537 -10.18397 -10.18134
 Alpha  occ. eigenvalues --  -10.18020 -10.17945 -10.17414 -10.16842 -10.15946
 Alpha  occ. eigenvalues --  -10.15672 -10.15434 -10.15349 -10.15325 -10.15282
 Alpha  occ. eigenvalues --  -10.15213  -7.96210  -7.95100  -5.92518  -5.92135
 Alpha  occ. eigenvalues --   -5.91780  -5.91421  -5.91038  -5.90638  -1.07221
 Alpha  occ. eigenvalues --   -1.07100  -1.02384  -1.02273  -0.99912  -0.99793
 Alpha  occ. eigenvalues --   -0.91116  -0.90869  -0.88908  -0.87342  -0.86090
 Alpha  occ. eigenvalues --   -0.81261  -0.79041  -0.77425  -0.75448  -0.74194
 Alpha  occ. eigenvalues --   -0.73674  -0.72690  -0.71638  -0.71220  -0.69165
 Alpha  occ. eigenvalues --   -0.68734  -0.67946  -0.66312  -0.62530  -0.61770
 Alpha  occ. eigenvalues --   -0.60933  -0.59782  -0.58986  -0.57273  -0.55041
 Alpha  occ. eigenvalues --   -0.54907  -0.53504  -0.53404  -0.52834  -0.50568
 Alpha  occ. eigenvalues --   -0.49466  -0.48213  -0.47402  -0.47105  -0.47080
 Alpha  occ. eigenvalues --   -0.46615  -0.46065  -0.45779  -0.45446  -0.44810
 Alpha  occ. eigenvalues --   -0.44450  -0.44341  -0.44170  -0.42680  -0.42205
 Alpha  occ. eigenvalues --   -0.41531  -0.41126  -0.40908  -0.40520  -0.40362
 Alpha  occ. eigenvalues --   -0.40144  -0.39989  -0.39214  -0.38257  -0.38217
 Alpha  occ. eigenvalues --   -0.37886  -0.37672  -0.37411  -0.36905  -0.36787
 Alpha  occ. eigenvalues --   -0.36415  -0.36225  -0.35109  -0.34816  -0.34493
 Alpha  occ. eigenvalues --   -0.33327  -0.33036  -0.32693  -0.32394  -0.31654
 Alpha  occ. eigenvalues --   -0.30052  -0.27771  -0.26699  -0.26308  -0.25760
 Alpha  occ. eigenvalues --   -0.25571  -0.25040  -0.24456  -0.24131  -0.23972
 Alpha  occ. eigenvalues --   -0.23594  -0.23230  -0.20853  -0.18218  -0.13197
 Alpha virt. eigenvalues --   -0.04397  -0.03428  -0.01176  -0.00426  -0.00055
 Alpha virt. eigenvalues --    0.00523   0.00630   0.00974   0.01144   0.01469
 Alpha virt. eigenvalues --    0.01822   0.02563   0.02729   0.03088   0.03113

 Mulliken charges:
               1
     1  C    0.384401
     2  C   -0.149359
     3  C    0.085626
     4  C    0.224358
     5  C    0.252005
     6  C   -0.563811
     7  C    0.170119
     8  C   -0.067548
     9  C    0.265730
    10  C   -0.247867
    11  C    0.316659
    12  C    0.175427
    13  C   -0.555408
    14  C   -0.648861
    15  H    0.122560
    16  H    0.123501
    17  H    0.121011
    18  N   -0.119275
    19  N   -0.157959
    20  O   -0.527418
    21  O   -0.513240
    22  O   -0.516639
    23  O   -0.427781
    24  C   -0.184433
    25  H    0.161976
    26  H    0.161499
    27  H    0.168630
    28  C   -0.201223
    29  H    0.158917
    30  H    0.160808
    31  H    0.168701
    32  C    0.179567
    33  C   -0.567607
    34  S   -0.437620
    35  C   -0.229302
    36  H    0.138618
    37  C    0.347522
    38  O   -0.157979
    39  C    0.850078
    40  C   -0.255886
    41  C   -0.002763
    42  S   -0.228130
    43  H    0.172411
    44  H    0.160580
    45  H    0.161680
    46  C   -0.529546
    47  O   -0.172450
    48  C   -0.346133
    49  H    0.157236
    50  C   -0.248609
    51  H    0.183946
    52  H    0.156919
    53  H    0.170971
    54  H    0.155390
 Sum of Mulliken charges =  -2.00000

 Dipole moment (field-independent basis, Debye):
    X=             27.4172    Y=             -3.0031    Z=              0.7996  Tot=             27.5928
 Quadrupole moment (field-independent basis, Debye-Ang):
   XX=           -376.8100   YY=           -305.5859   ZZ=           -218.0720
   XY=              8.2391   XZ=             24.8088   YZ=             24.8686

 Normal termination of Gaussian 16 at Thu Oct 28 09:29:48 2021.
