 Gaussian 16, Revision C.01,
 Gaussian 16:  ES64L-G16RevC.01  3-Jul-2019

 ---------------------------------------------------------------
 # opt=modredundant b3lyp/6-311+g(d,p) scrf=(pcm, solvent=water)
 ---------------------------------------------------------------

 -----------
 NDI_-75.pdb
 -----------
 Symbolic Z-matrix:
 Charge = -2 Multiplicity = 1

 SCF Done:  E(RB3LYP) =  -2359.60443084     A.U. after   16 cycles
 SCF Done:  E(RB3LYP) =  -2359.62191631     A.U. after   13 cycles
 SCF Done:  E(RB3LYP) =  -2359.62431158     A.U. after   13 cycles
 SCF Done:  E(RB3LYP) =  -2359.62435362     A.U. after   12 cycles
 SCF Done:  E(RB3LYP) =  -2359.62448104     A.U. after   12 cycles
 SCF Done:  E(RB3LYP) =  -2359.62451272     A.U. after   11 cycles
 SCF Done:  E(RB3LYP) =  -2359.62452196     A.U. after   11 cycles
 SCF Done:  E(RB3LYP) =  -2359.62453040     A.U. after   10 cycles
 SCF Done:  E(RB3LYP) =  -2359.62454062     A.U. after   11 cycles
 SCF Done:  E(RB3LYP) =  -2359.62454767     A.U. after   10 cycles
 SCF Done:  E(RB3LYP) =  -2359.62455548     A.U. after   10 cycles
 SCF Done:  E(RB3LYP) =  -2359.62455982     A.U. after   10 cycles
 SCF Done:  E(RB3LYP) =  -2359.62456131     A.U. after   10 cycles
 SCF Done:  E(RB3LYP) =  -2359.62456154     A.U. after   10 cycles
 SCF Done:  E(RB3LYP) =  -2359.62456172     A.U. after    8 cycles
 SCF Done:  E(RB3LYP) =  -2359.62456189     A.U. after    8 cycles
 SCF Done:  E(RB3LYP) =  -2359.62456200     A.U. after    8 cycles
 SCF Done:  E(RB3LYP) =  -2359.62456203     A.U. after    8 cycles
 SCF Done:  E(RB3LYP) =  -2359.62456202     A.U. after    8 cycles
 SCF Done:  E(RB3LYP) =  -2359.62456195     A.U. after    8 cycles
 Optimization completed.
    -- Stationary point found.

                         Standard orientation:
 ---------------------------------------------------------------------
 Center     Atomic      Atomic             Coordinates (Angstroms)
 Number     Number       Type             X           Y           Z
 ---------------------------------------------------------------------
      1          6           0        3.042900   -2.858226    0.473214
      2          6           0        2.533713   -1.531964    0.286338
      3          6           0        3.420843   -0.456962    0.031651
      4          6           0        4.820692   -0.668364   -0.040949
      5          6           0        5.363712   -1.983062    0.148108
      6          6           0        1.132945   -1.283479    0.390698
      7          6           0        2.877919    0.869618   -0.166399
      8          6           0        1.468056    1.083023   -0.102219
      9          6           0        0.595256   -0.032610    0.231491
     10          6           0        0.953121    2.388768   -0.415019
     11          6           0        3.291892    3.259595   -0.664593
     12          6           0        3.780602    1.931512   -0.441170
     13          6           0        5.192227    1.683774   -0.507874
     14          6           0        5.696417    0.433315   -0.314184
     15          1           0        6.761249    0.243343   -0.367966
     16          1           0        5.844223    2.521608   -0.722194
     17          1           0        0.489725   -2.115670    0.649051
     18          7           0        1.897955    3.414747   -0.633128
     19          7           0        4.437105   -3.014611    0.398484
     20          8           0        2.335879   -3.871666    0.697819
     21          8           0        6.589777   -2.250112    0.100334
     22          8           0        4.026240    4.254002   -0.889874
     23          8           0       -0.257384    2.691445   -0.518165
     24          6           0        1.345793    4.745832   -0.894151
     25          1           0        0.815822    4.763094   -1.849366
     26          1           0        0.637113    5.013435   -0.110422
     27          1           0        2.170899    5.450129   -0.919513
     28          6           0        4.946241   -4.373220    0.597958
     29          1           0        4.614719   -4.759950    1.562565
     30          1           0        4.569954   -5.038686   -0.181628
     31          1           0        6.029909   -4.333223    0.560042
     32          6           0       -0.860760    0.111244    0.468710
     33          6           0       -1.510663    0.624612    1.558641
     34         16           0       -2.001442   -0.562517   -0.668533
     35          6           0       -2.926773    0.506536    1.476601
     36          1           0       -0.986702    1.082533    2.385150
     37          6           0       -3.390266   -0.116954    0.327318
     38          8           0       -3.819928    0.929932    2.418272
     39          6           0       -4.754548   -0.399422   -0.052210
     40          6           0       -3.309426    1.606363    3.570394
     41          6           0       -5.218886   -1.026501   -1.200640
     42         16           0       -6.132326    0.047823    0.954275
     43          1           0       -4.178061    1.870139    4.170766
     44          1           0       -2.650548    0.953496    4.149754
     45          1           0       -2.771767    2.515196    3.285979
     46          6           0       -6.638011   -1.145637   -1.273631
     47          8           0       -4.328863   -1.464569   -2.138272
     48          6           0       -7.260247   -0.609874   -0.182340
     49          1           0       -7.170047   -1.605036   -2.094115
     50          6           0       -4.849977   -2.103480   -3.306471
     51          1           0       -8.318383   -0.561649    0.024172
     52          1           0       -5.496438   -1.425123   -3.870690
     53          1           0       -3.985581   -2.368398   -3.912264
     54          1           0       -5.403618   -3.009952   -3.045222
 ---------------------------------------------------------------------

 The electronic state is 1-A.
 Alpha  occ. eigenvalues --  -88.87648 -88.86806 -19.15936 -19.15885 -19.06660
 Alpha  occ. eigenvalues --  -19.06629 -19.06515 -19.06217 -14.34603 -14.34360
 Alpha  occ. eigenvalues --  -10.25093 -10.24917 -10.24890 -10.24883 -10.23540
 Alpha  occ. eigenvalues --  -10.23335 -10.22287 -10.22215 -10.20981 -10.20232
 Alpha  occ. eigenvalues --  -10.20229 -10.19823 -10.18524 -10.18385 -10.18136
 Alpha  occ. eigenvalues --  -10.18024 -10.17941 -10.17474 -10.16756 -10.16000
 Alpha  occ. eigenvalues --  -10.15666 -10.15389 -10.15326 -10.15322 -10.15253
 Alpha  occ. eigenvalues --  -10.15185  -7.96212  -7.95376  -5.92520  -5.92137
 Alpha  occ. eigenvalues --   -5.91782  -5.91693  -5.91308  -5.90928  -1.07230
 Alpha  occ. eigenvalues --   -1.07107  -1.02354  -1.02257  -0.99872  -0.99763
 Alpha  occ. eigenvalues --   -0.91093  -0.90843  -0.88947  -0.87389  -0.86094
 Alpha  occ. eigenvalues --   -0.81242  -0.79030  -0.77408  -0.75491  -0.74245
 Alpha  occ. eigenvalues --   -0.73585  -0.72746  -0.71622  -0.71253  -0.69186
 Alpha  occ. eigenvalues --   -0.68738  -0.67938  -0.66290  -0.62555  -0.61739
 Alpha  occ. eigenvalues --   -0.60912  -0.59810  -0.58977  -0.57278  -0.55042
 Alpha  occ. eigenvalues --   -0.54917  -0.53485  -0.53402  -0.52836  -0.50607
 Alpha  occ. eigenvalues --   -0.49338  -0.48402  -0.47410  -0.47092  -0.47037
 Alpha  occ. eigenvalues --   -0.46637  -0.46047  -0.45758  -0.45439  -0.44800
 Alpha  occ. eigenvalues --   -0.44443  -0.44321  -0.44230  -0.42519  -0.42166
 Alpha  occ. eigenvalues --   -0.41707  -0.41094  -0.40883  -0.40505  -0.40352
 Alpha  occ. eigenvalues --   -0.40119  -0.39987  -0.39155  -0.38243  -0.38173
 Alpha  occ. eigenvalues --   -0.38005  -0.37735  -0.37308  -0.36923  -0.36814
 Alpha  occ. eigenvalues --   -0.36473  -0.36199  -0.35147  -0.34772  -0.34484
 Alpha  occ. eigenvalues --   -0.33332  -0.33033  -0.32770  -0.32359  -0.31641
 Alpha  occ. eigenvalues --   -0.30136  -0.27774  -0.26684  -0.26272  -0.25763
 Alpha  occ. eigenvalues --   -0.25530  -0.25010  -0.24539  -0.24148  -0.23965
 Alpha  occ. eigenvalues --   -0.23586  -0.23175  -0.20840  -0.18225  -0.13180
 Alpha virt. eigenvalues --   -0.04291  -0.03374  -0.01274  -0.00385  -0.00038
 Alpha virt. eigenvalues --    0.00486   0.00555   0.01021   0.01164   0.01413
 Alpha virt. eigenvalues --    0.01777   0.02567   0.02670   0.03053   0.03168

 Mulliken charges:
               1
     1  C    0.425009
     2  C   -0.105535
     3  C    0.139540
     4  C    0.145709
     5  C    0.236096
     6  C   -0.561170
     7  C    0.197120
     8  C   -0.019403
     9  C    0.484698
    10  C   -0.404912
    11  C    0.205666
    12  C    0.126938
    13  C   -0.555069
    14  C   -0.640498
    15  H    0.121863
    16  H    0.122643
    17  H    0.121766
    18  N   -0.160904
    19  N   -0.161576
    20  O   -0.528126
    21  O   -0.514458
    22  O   -0.516818
    23  O   -0.375003
    24  C   -0.211596
    25  H    0.161157
    26  H    0.160380
    27  H    0.168016
    28  C   -0.199700
    29  H    0.159474
    30  H    0.159696
    31  H    0.167777
    32  C    0.066560
    33  C   -0.551971
    34  S   -0.267209
    35  C   -0.193481
    36  H    0.135393
    37  C    0.398009
    38  O   -0.176718
    39  C    0.730349
    40  C   -0.233467
    41  C    0.013186
    42  S   -0.251432
    43  H    0.171973
    44  H    0.158860
    45  H    0.161704
    46  C   -0.545024
    47  O   -0.174237
    48  C   -0.367143
    49  H    0.157060
    50  C   -0.248611
    51  H    0.183693
    52  H    0.156750
    53  H    0.171017
    54  H    0.155959
 Sum of Mulliken charges =  -2.00000

 Dipole moment (field-independent basis, Debye):
    X=            -27.9035    Y=             -1.6185    Z=              1.4214  Tot=             27.9865
 Quadrupole moment (field-independent basis, Debye-Ang):
   XX=           -381.9978   YY=           -307.3286   ZZ=           -214.3369
   XY=              7.1195   XZ=             15.0813   YZ=             27.9533

 Normal termination of Gaussian 16 at Thu Oct 28 11:09:46 2021.
