 Gaussian 16, Revision C.01,
 Gaussian 16:  ES64L-G16RevC.01  3-Jul-2019

 ---------------------------------------------------------------
 # opt=modredundant b3lyp/6-311+g(d,p) scrf=(pcm, solvent=water)
 ---------------------------------------------------------------

 ---------
 NDI_0.pdb
 ---------
 Symbolic Z-matrix:
 Charge = -2 Multiplicity = 1

 SCF Done:  E(RB3LYP) =  -2359.58364771     A.U. after   16 cycles
 SCF Done:  E(RB3LYP) =  -2359.59021419     A.U. after   17 cycles
 SCF Done:  E(RB3LYP) =  -2359.60088710     A.U. after   13 cycles
 SCF Done:  E(RB3LYP) =  -2359.61140974     A.U. after   14 cycles
 SCF Done:  E(RB3LYP) =  -2359.61648734     A.U. after   15 cycles
 SCF Done:  E(RB3LYP) =  -2359.61842232     A.U. after   16 cycles
 SCF Done:  E(RB3LYP) =  -2359.61925162     A.U. after   15 cycles
 SCF Done:  E(RB3LYP) =  -2359.62008325     A.U. after   13 cycles
 SCF Done:  E(RB3LYP) =  -2359.62031070     A.U. after   13 cycles
 SCF Done:  E(RB3LYP) =  -2359.62037688     A.U. after   12 cycles
 SCF Done:  E(RB3LYP) =  -2359.62050152     A.U. after    9 cycles
 SCF Done:  E(RB3LYP) =  -2359.62050296     A.U. after   10 cycles
 SCF Done:  E(RB3LYP) =  -2359.62050302     A.U. after    9 cycles
 SCF Done:  E(RB3LYP) =  -2359.62050318     A.U. after   10 cycles
 SCF Done:  E(RB3LYP) =  -2359.62050329     A.U. after    9 cycles
 SCF Done:  E(RB3LYP) =  -2359.62050333     A.U. after    8 cycles
 SCF Done:  E(RB3LYP) =  -2359.62050336     A.U. after    8 cycles
 SCF Done:  E(RB3LYP) =  -2359.62050339     A.U. after    8 cycles
 SCF Done:  E(RB3LYP) =  -2359.62050342     A.U. after    8 cycles
 SCF Done:  E(RB3LYP) =  -2359.62050343     A.U. after    7 cycles
 Optimization completed.
    -- Stationary point found.

                         Standard orientation:
 ---------------------------------------------------------------------
 Center     Atomic      Atomic             Coordinates (Angstroms)
 Number     Number       Type             X           Y           Z
 ---------------------------------------------------------------------
      1          6           0       -2.595803   -3.012701    0.180306
      2          6           0       -2.288645   -1.610853    0.191926
      3          6           0       -3.302456   -0.654660   -0.071718
      4          6           0       -4.625304   -1.057269   -0.359053
      5          6           0       -4.964401   -2.457250   -0.392886
      6          6           0       -0.947268   -1.185102    0.348799
      7          6           0       -2.960439    0.748038   -0.006908
      8          6           0       -1.627281    1.153394    0.311523
      9          6           0       -0.559004    0.139048    0.371782
     10          6           0       -1.445925    2.513408    0.733415
     11          6           0       -3.747217    3.095596   -0.063009
     12          6           0       -4.004683    1.691039   -0.206261
     13          6           0       -5.332432    1.253114   -0.514828
     14          6           0       -5.638101   -0.073490   -0.593190
     15          1           0       -6.644244   -0.407442   -0.813623
     16          1           0       -6.091693    2.010441   -0.666604
     17          1           0       -0.204397   -1.973542    0.359495
     18          7           0       -2.473610    3.431286    0.405352
     19          7           0       -3.924457   -3.364002   -0.114000
     20          8           0       -1.768271   -3.926524    0.404614
     21          8           0       -6.112291   -2.888446   -0.645272
     22          8           0       -4.589811    3.997771   -0.291741
     23          8           0       -0.471422    2.959209    1.384494
     24          6           0       -2.206597    4.840442    0.701679
     25          1           0       -2.340007    5.051665    1.766807
     26          1           0       -1.179052    5.077525    0.434214
     27          1           0       -2.905044    5.443907    0.130117
     28          6           0       -4.225880   -4.797622   -0.127182
     29          1           0       -3.607976   -5.305914   -0.869167
     30          1           0       -4.013914   -5.236437    0.849307
     31          1           0       -5.276408   -4.917262   -0.370541
     32          6           0        0.865208    0.424517    0.163929
     33          6           0        1.519704    1.606242   -0.116466
     34         16           0        2.055776   -0.882923    0.290860
     35          6           0        2.924261    1.470841   -0.261043
     36          1           0        1.004478    2.547036   -0.191862
     37          6           0        3.413886    0.189401   -0.067401
     38          8           0        3.792399    2.482391   -0.558647
     39          6           0        4.775884   -0.273915   -0.140046
     40          6           0        3.253423    3.788839   -0.777451
     41          6           0        5.271787   -1.555949    0.069574
     42         16           0        6.119579    0.801004   -0.535689
     43          1           0        4.104420    4.427262   -1.007723
     44          1           0        2.556461    3.790150   -1.620146
     45          1           0        2.748937    4.161423    0.118230
     46          6           0        6.683965   -1.673198   -0.083588
     47          8           0        4.415895   -2.568942    0.394395
     48          6           0        7.272895   -0.484470   -0.409295
     49          1           0        7.236135   -2.593336    0.042187
     50          6           0        4.969188   -3.871832    0.593029
     51          1           0        8.319225   -0.284486   -0.581869
     52          1           0        5.683170   -3.874478    1.421820
     53          1           0        4.128793   -4.518997    0.836637
     54          1           0        5.457329   -4.235136   -0.316047
 ---------------------------------------------------------------------

 The electronic state is 1-A.
 Alpha  occ. eigenvalues --  -88.87559 -88.86312 -19.15846 -19.15731 -19.07199
 Alpha  occ. eigenvalues --  -19.07013 -19.06668 -19.06311 -14.34871 -14.34380
 Alpha  occ. eigenvalues --  -10.25636 -10.25314 -10.25007 -10.24929 -10.23462
 Alpha  occ. eigenvalues --  -10.23073 -10.22244 -10.22093 -10.20951 -10.20243
 Alpha  occ. eigenvalues --  -10.20070 -10.19729 -10.18689 -10.18502 -10.18250
 Alpha  occ. eigenvalues --  -10.17990 -10.17964 -10.17779 -10.16130 -10.16081
 Alpha  occ. eigenvalues --  -10.15941 -10.15832 -10.15560 -10.15534 -10.15485
 Alpha  occ. eigenvalues --  -10.15361  -7.96124  -7.94900  -5.92432  -5.92050
 Alpha  occ. eigenvalues --   -5.91691  -5.91230  -5.90849  -5.90417  -1.07139
 Alpha  occ. eigenvalues --   -1.06949  -1.02847  -1.02376  -1.00444  -0.99892
 Alpha  occ. eigenvalues --   -0.91475  -0.90958  -0.88761  -0.87204  -0.86144
 Alpha  occ. eigenvalues --   -0.81398  -0.79203  -0.77344  -0.75469  -0.74318
 Alpha  occ. eigenvalues --   -0.73332  -0.73007  -0.71625  -0.71217  -0.69087
 Alpha  occ. eigenvalues --   -0.68887  -0.68023  -0.66182  -0.62831  -0.61866
 Alpha  occ. eigenvalues --   -0.61101  -0.60075  -0.58756  -0.57277  -0.54981
 Alpha  occ. eigenvalues --   -0.54817  -0.53689  -0.53238  -0.52955  -0.50883
 Alpha  occ. eigenvalues --   -0.49665  -0.47986  -0.47333  -0.46984  -0.46884
 Alpha  occ. eigenvalues --   -0.46709  -0.46266  -0.45832  -0.45533  -0.45025
 Alpha  occ. eigenvalues --   -0.44519  -0.44330  -0.44071  -0.42785  -0.41945
 Alpha  occ. eigenvalues --   -0.41799  -0.41066  -0.40790  -0.40638  -0.40473
 Alpha  occ. eigenvalues --   -0.40177  -0.40060  -0.39117  -0.38511  -0.38340
 Alpha  occ. eigenvalues --   -0.38174  -0.37869  -0.37564  -0.37191  -0.36915
 Alpha  occ. eigenvalues --   -0.36237  -0.35953  -0.35301  -0.34737  -0.34484
 Alpha  occ. eigenvalues --   -0.33568  -0.32954  -0.32926  -0.32651  -0.31165
 Alpha  occ. eigenvalues --   -0.30360  -0.28059  -0.26783  -0.26601  -0.25905
 Alpha  occ. eigenvalues --   -0.25787  -0.25031  -0.24668  -0.24477  -0.24007
 Alpha  occ. eigenvalues --   -0.23543  -0.23067  -0.20988  -0.17938  -0.13282
 Alpha virt. eigenvalues --   -0.05512  -0.03447  -0.01432  -0.00520  -0.00076
 Alpha virt. eigenvalues --    0.00638   0.00796   0.01055   0.01692   0.02007
 Alpha virt. eigenvalues --    0.02337   0.02550   0.03018   0.03180   0.03238

 Mulliken charges:
               1
     1  C    0.213606
     2  C   -0.008663
     3  C    0.254671
     4  C    0.196854
     5  C    0.227067
     6  C    0.070649
     7  C    0.182301
     8  C    0.319867
     9  C   -0.018197
    10  C   -0.828482
    11  C    0.205648
    12  C    0.139539
    13  C   -0.519439
    14  C   -0.589370
    15  H    0.123910
    16  H    0.125203
    17  H    0.129366
    18  N   -0.014758
    19  N   -0.148184
    20  O   -0.519721
    21  O   -0.497805
    22  O   -0.518774
    23  O   -0.472562
    24  C   -0.168781
    25  H    0.162320
    26  H    0.163011
    27  H    0.166121
    28  C   -0.197422
    29  H    0.162257
    30  H    0.160829
    31  H    0.168001
    32  C   -0.401620
    33  C   -0.081239
    34  S   -0.634744
    35  C   -0.435095
    36  H    0.163974
    37  C    0.527855
    38  O   -0.167942
    39  C    0.863131
    40  C   -0.236232
    41  C    0.015101
    42  S   -0.212919
    43  H    0.172372
    44  H    0.156550
    45  H    0.158750
    46  C   -0.583238
    47  O   -0.168301
    48  C   -0.377730
    49  H    0.156619
    50  C   -0.250636
    51  H    0.183952
    52  H    0.155235
    53  H    0.171195
    54  H    0.155898
 Sum of Mulliken charges =  -2.00000

 Dipole moment (field-independent basis, Debye):
    X=             26.2247    Y=             -0.8887    Z=             -1.7062  Tot=             26.2952
 Quadrupole moment (field-independent basis, Debye-Ang):
   XX=           -370.9477   YY=           -285.1265   ZZ=           -241.2399
   XY=            -10.0401   XZ=            -12.4197   YZ=             -8.3302

 Normal termination of Gaussian 16 at Thu Oct 28 13:00:24 2021.
