 Gaussian 16, Revision C.01,
 Gaussian 16:  ES64L-G16RevC.01  3-Jul-2019

 ---------------------------------------------------------------
 # opt=modredundant b3lyp/6-311+g(d,p) scrf=(pcm, solvent=water)
 ---------------------------------------------------------------

 -----------
 NDI_-90.pdb
 -----------
 Symbolic Z-matrix:
 Charge = -2 Multiplicity = 1

 SCF Done:  E(RB3LYP) =  -2359.60317900     A.U. after   16 cycles
 SCF Done:  E(RB3LYP) =  -2359.62152167     A.U. after   13 cycles
 SCF Done:  E(RB3LYP) =  -2359.62409718     A.U. after   13 cycles
 SCF Done:  E(RB3LYP) =  -2359.62419326     A.U. after   12 cycles
 SCF Done:  E(RB3LYP) =  -2359.62421931     A.U. after   12 cycles
 SCF Done:  E(RB3LYP) =  -2359.62425439     A.U. after   11 cycles
 SCF Done:  E(RB3LYP) =  -2359.62425992     A.U. after   11 cycles
 SCF Done:  E(RB3LYP) =  -2359.62426219     A.U. after   10 cycles
 SCF Done:  E(RB3LYP) =  -2359.62426241     A.U. after   10 cycles
 SCF Done:  E(RB3LYP) =  -2359.62426322     A.U. after   10 cycles
 SCF Done:  E(RB3LYP) =  -2359.62426378     A.U. after    9 cycles
 SCF Done:  E(RB3LYP) =  -2359.62426489     A.U. after    9 cycles
 SCF Done:  E(RB3LYP) =  -2359.62426554     A.U. after    9 cycles
 SCF Done:  E(RB3LYP) =  -2359.62426627     A.U. after    9 cycles
 SCF Done:  E(RB3LYP) =  -2359.62426690     A.U. after    9 cycles
 SCF Done:  E(RB3LYP) =  -2359.62426691     A.U. after    8 cycles
 Optimization completed.
    -- Stationary point found.

                         Standard orientation:
 ---------------------------------------------------------------------
 Center     Atomic      Atomic             Coordinates (Angstroms)
 Number     Number       Type             X           Y           Z
 ---------------------------------------------------------------------
      1          6           0        3.193667   -2.835033    0.243288
      2          6           0        2.618271   -1.524074    0.190945
      3          6           0        3.441164   -0.392262   -0.027519
      4          6           0        4.842190   -0.531308   -0.196529
      5          6           0        5.449858   -1.829982   -0.152759
      6          6           0        1.212981   -1.353390    0.370117
      7          6           0        2.832009    0.919279   -0.079530
      8          6           0        1.421344    1.060556    0.084649
      9          6           0        0.611993   -0.123019    0.331401
     10          6           0        0.842391    2.373355   -0.006642
     11          6           0        3.118913    3.362623   -0.365835
     12          6           0        3.672705    2.043364   -0.299780
     13          6           0        5.087985    1.868552   -0.461496
     14          6           0        5.653855    0.630634   -0.413217
     15          1           0        6.721457    0.496929   -0.536828
     16          1           0        5.692461    2.752118   -0.624935
     17          1           0        0.615126   -2.237699    0.552466
     18          7           0        1.726364    3.452645   -0.216984
     19          7           0        4.584265   -2.920795    0.064580
     20          8           0        2.545659   -3.893982    0.434726
     21          8           0        6.680769   -2.035300   -0.295854
     22          8           0        3.796766    4.405191   -0.548012
     23          8           0       -0.378089    2.639033    0.081004
     24          6           0        1.105339    4.776603   -0.295620
     25          1           0        0.406397    4.818794   -1.133118
     26          1           0        0.548075    4.986381    0.618659
     27          1           0        1.895542    5.507566   -0.431826
     28          6           0        5.159747   -4.266580    0.113285
     29          1           0        4.969307   -4.725493    1.085259
     30          1           0        4.707374   -4.897780   -0.653411
     31          1           0        6.228049   -4.179155   -0.055293
     32          6           0       -0.852789   -0.084649    0.572371
     33          6           0       -1.519942    0.036734    1.760320
     34         16           0       -1.972929   -0.354567   -0.739615
     35          6           0       -2.935787   -0.050791    1.623139
     36          1           0       -1.009823    0.201772    2.698467
     37          6           0       -3.377744   -0.262190    0.326431
     38          8           0       -3.844325    0.040814    2.637900
     39          6           0       -4.734939   -0.410623   -0.145429
     40          6           0       -3.353465    0.299507    3.956133
     41          6           0       -5.177920   -0.640828   -1.440837
     42         16           0       -6.129914   -0.308424    0.928947
     43          1           0       -4.231752    0.349673    4.596952
     44          1           0       -2.699037   -0.507502    4.297352
     45          1           0       -2.817201    1.251779    3.995533
     46          6           0       -6.595169   -0.731730   -1.570653
     47          8           0       -4.271663   -0.758682   -2.454423
     48          6           0       -7.236558   -0.571416   -0.375703
     49          1           0       -7.112344   -0.907108   -2.502875
     50          6           0       -4.771060   -1.000474   -3.772293
     51          1           0       -8.297920   -0.593552   -0.181587
     52          1           0       -5.413398   -0.180575   -4.106229
     53          1           0       -3.895903   -1.060922   -4.416351
     54          1           0       -5.322476   -1.944068   -3.816874
 ---------------------------------------------------------------------

 The electronic state is 1-A.
 Alpha  occ. eigenvalues --  -88.87670 -88.86711 -19.15949 -19.15898 -19.06612
 Alpha  occ. eigenvalues --  -19.06596 -19.06490 -19.06177 -14.34580 -14.34357
 Alpha  occ. eigenvalues --  -10.25046 -10.24879 -10.24869 -10.24850 -10.23574
 Alpha  occ. eigenvalues --  -10.23332 -10.22294 -10.22225 -10.20989 -10.20272
 Alpha  occ. eigenvalues --  -10.20255 -10.19852 -10.18511 -10.18366 -10.18124
 Alpha  occ. eigenvalues --  -10.18038 -10.17926 -10.17427 -10.16830 -10.16015
 Alpha  occ. eigenvalues --  -10.15605 -10.15345 -10.15298 -10.15294 -10.15231
 Alpha  occ. eigenvalues --  -10.15164  -7.96234  -7.95286  -5.92542  -5.92159
 Alpha  occ. eigenvalues --   -5.91805  -5.91605  -5.91219  -5.90834  -1.07248
 Alpha  occ. eigenvalues --   -1.07119  -1.02311  -1.02235  -0.99822  -0.99735
 Alpha  occ. eigenvalues --   -0.91061  -0.90829  -0.88953  -0.87377  -0.86077
 Alpha  occ. eigenvalues --   -0.81213  -0.79009  -0.77419  -0.75483  -0.74225
 Alpha  occ. eigenvalues --   -0.73617  -0.72694  -0.71630  -0.71236  -0.69184
 Alpha  occ. eigenvalues --   -0.68718  -0.67931  -0.66303  -0.62517  -0.61730
 Alpha  occ. eigenvalues --   -0.60892  -0.59760  -0.59015  -0.57282  -0.55046
 Alpha  occ. eigenvalues --   -0.54921  -0.53487  -0.53402  -0.52817  -0.50557
 Alpha  occ. eigenvalues --   -0.49313  -0.48422  -0.47421  -0.47102  -0.47067
 Alpha  occ. eigenvalues --   -0.46620  -0.46026  -0.45749  -0.45431  -0.44776
 Alpha  occ. eigenvalues --   -0.44445  -0.44337  -0.44202  -0.42537  -0.42199
 Alpha  occ. eigenvalues --   -0.41660  -0.41073  -0.40893  -0.40527  -0.40322
 Alpha  occ. eigenvalues --   -0.40074  -0.39984  -0.39174  -0.38201  -0.38174
 Alpha  occ. eigenvalues --   -0.37905  -0.37758  -0.37316  -0.36914  -0.36753
 Alpha  occ. eigenvalues --   -0.36461  -0.36204  -0.35150  -0.34681  -0.34523
 Alpha  occ. eigenvalues --   -0.33333  -0.33049  -0.32736  -0.32346  -0.31595
 Alpha  occ. eigenvalues --   -0.30047  -0.27752  -0.26679  -0.26233  -0.25718
 Alpha  occ. eigenvalues --   -0.25514  -0.25027  -0.24398  -0.24226  -0.23967
 Alpha  occ. eigenvalues --   -0.23443  -0.23311  -0.20821  -0.18258  -0.13165
 Alpha virt. eigenvalues --   -0.04174  -0.03438  -0.01174  -0.00356  -0.00043
 Alpha virt. eigenvalues --    0.00349   0.00539   0.01005   0.01221   0.01340
 Alpha virt. eigenvalues --    0.01722   0.02559   0.02692   0.03043   0.03167

 Mulliken charges:
               1
     1  C    0.423881
     2  C   -0.009067
     3  C    0.181083
     4  C    0.145598
     5  C    0.248311
     6  C   -0.623149
     7  C    0.198362
     8  C   -0.153864
     9  C    0.484666
    10  C   -0.379500
    11  C    0.188350
    12  C    0.167017
    13  C   -0.584653
    14  C   -0.653553
    15  H    0.121825
    16  H    0.122523
    17  H    0.116335
    18  N   -0.179983
    19  N   -0.162433
    20  O   -0.527360
    21  O   -0.516084
    22  O   -0.515304
    23  O   -0.372204
    24  C   -0.219530
    25  H    0.160122
    26  H    0.158891
    27  H    0.168341
    28  C   -0.199366
    29  H    0.159657
    30  H    0.158845
    31  H    0.167696
    32  C    0.068989
    33  C   -0.548053
    34  S   -0.106442
    35  C   -0.152919
    36  H    0.132918
    37  C    0.217587
    38  O   -0.176650
    39  C    0.749581
    40  C   -0.234664
    41  C    0.046227
    42  S   -0.254719
    43  H    0.172251
    44  H    0.159325
    45  H    0.162196
    46  C   -0.531238
    47  O   -0.179991
    48  C   -0.378107
    49  H    0.157075
    50  C   -0.246699
    51  H    0.183802
    52  H    0.156916
    53  H    0.171127
    54  H    0.156035
 Sum of Mulliken charges =  -2.00000

 Dipole moment (field-independent basis, Debye):
    X=            -28.1087    Y=             -2.3024    Z=              0.8414  Tot=             28.2154
 Quadrupole moment (field-independent basis, Debye-Ang):
   XX=           -382.0138   YY=           -315.5708   ZZ=           -206.1862
   XY=              3.0299   XZ=             19.7523   YZ=             12.7273

 Normal termination of Gaussian 16 at Thu Oct 28 09:51:23 2021.
