 Gaussian 16, Revision C.01,
 Gaussian 16:  ES64L-G16RevC.01  3-Jul-2019

 ---------------------------------------------------------------
 # opt=modredundant b3lyp/6-311+g(d,p) scrf=(pcm, solvent=water)
 ---------------------------------------------------------------

 -----------
 NDI_100.pdb
 -----------
 Symbolic Z-matrix:
 Charge = -2 Multiplicity = 1

 SCF Done:  E(RB3LYP) =  -2359.60318809     A.U. after   16 cycles
 SCF Done:  E(RB3LYP) =  -2359.62111358     A.U. after   13 cycles
 SCF Done:  E(RB3LYP) =  -2359.62394291     A.U. after   14 cycles
 SCF Done:  E(RB3LYP) =  -2359.62411325     A.U. after   12 cycles
 SCF Done:  E(RB3LYP) =  -2359.62424041     A.U. after   12 cycles
 SCF Done:  E(RB3LYP) =  -2359.62432327     A.U. after   11 cycles
 SCF Done:  E(RB3LYP) =  -2359.62433748     A.U. after   11 cycles
 SCF Done:  E(RB3LYP) =  -2359.62434662     A.U. after   10 cycles
 SCF Done:  E(RB3LYP) =  -2359.62435423     A.U. after   10 cycles
 SCF Done:  E(RB3LYP) =  -2359.62435906     A.U. after   10 cycles
 SCF Done:  E(RB3LYP) =  -2359.62436927     A.U. after   10 cycles
 SCF Done:  E(RB3LYP) =  -2359.62437157     A.U. after   10 cycles
 SCF Done:  E(RB3LYP) =  -2359.62437224     A.U. after    9 cycles
 SCF Done:  E(RB3LYP) =  -2359.62437230     A.U. after    9 cycles
 SCF Done:  E(RB3LYP) =  -2359.62437222     A.U. after    9 cycles
 SCF Done:  E(RB3LYP) =  -2359.62437214     A.U. after    8 cycles
 SCF Done:  E(RB3LYP) =  -2359.62437202     A.U. after    8 cycles
 SCF Done:  E(RB3LYP) =  -2359.62437176     A.U. after    9 cycles
 SCF Done:  E(RB3LYP) =  -2359.62437227     A.U. after   10 cycles
 SCF Done:  E(RB3LYP) =  -2359.62437208     A.U. after    9 cycles
 Optimization completed.
    -- Stationary point found.

                         Standard orientation:
 ---------------------------------------------------------------------
 Center     Atomic      Atomic             Coordinates (Angstroms)
 Number     Number       Type             X           Y           Z
 ---------------------------------------------------------------------
      1          6           0        3.287732   -2.809428    0.020849
      2          6           0        2.669474   -1.519881   -0.062656
      3          6           0        3.446672   -0.344906    0.081646
      4          6           0        4.843453   -0.419173    0.315162
      5          6           0        5.493134   -1.694880    0.410300
      6          6           0        1.263956   -1.415475   -0.283073
      7          6           0        2.795652    0.943683   -0.018902
      8          6           0        1.390392    1.021247   -0.258921
      9          6           0        0.621507   -0.209083   -0.376522
     10          6           0        0.784081    2.317575   -0.399616
     11          6           0        3.001740    3.411611    0.018848
     12          6           0        3.593167    2.111053    0.119038
     13          6           0        5.003994    2.001629    0.356453
     14          6           0        5.609318    0.785347    0.451770
     15          1           0        6.674339    0.702155    0.629738
     16          1           0        5.571722    2.918599    0.454835
     17          1           0        0.696049   -2.333825   -0.364870
     18          7           0        1.622856    3.441234   -0.238873
     19          7           0        4.672063   -2.830329    0.258236
     20          8           0        2.681721   -3.902882   -0.101375
     21          8           0        6.723321   -1.843640    0.615531
     22          8           0        3.639136    4.487658    0.141515
     23          8           0       -0.422763    2.535017   -0.653377
     24          6           0        0.971079    4.746224   -0.372210
     25          1           0        0.545564    4.858525   -1.371252
     26          1           0        0.159765    4.838073    0.351413
     27          1           0        1.719763    5.512000   -0.197534
     28          6           0        5.291095   -4.154532    0.347770
     29          1           0        4.824114   -4.735522    1.144776
     30          1           0        5.158662   -4.698589   -0.589298
     31          1           0        6.347667   -4.017255    0.552974
     32          6           0       -0.845797   -0.255372   -0.594563
     33          6           0       -1.525194   -0.465309   -1.763230
     34         16           0       -1.951770   -0.173519    0.755591
     35          6           0       -2.939119   -0.526379   -1.591000
     36          1           0       -1.025103   -0.550495   -2.717274
     37          6           0       -3.366510   -0.382617   -0.280573
     38          8           0       -3.857481   -0.716088   -2.583144
     39          6           0       -4.718095   -0.401860    0.229181
     40          6           0       -3.380788   -0.817930   -3.927788
     41          6           0       -5.147406   -0.277030    1.543589
     42         16           0       -6.123996   -0.591412   -0.818701
     43          1           0       -4.265087   -0.948893   -4.548601
     44          1           0       -2.855006    0.092737   -4.228149
     45          1           0       -2.720898   -1.681883   -4.046618
     46          6           0       -6.563165   -0.328907    1.707342
     47          8           0       -4.231098   -0.122815    2.543149
     48          6           0       -7.216790   -0.494458    0.519809
     49          1           0       -7.070918   -0.248123    2.657540
     50          6           0       -4.718646    0.030694    3.878589
     51          1           0       -8.279983   -0.567748    0.349791
     52          1           0       -5.278130   -0.853456    4.197458
     53          1           0       -3.837234    0.147526    4.506132
     54          1           0       -5.349767    0.919670    3.967011
 ---------------------------------------------------------------------

 The electronic state is 1-A.
 Alpha  occ. eigenvalues --  -88.87676 -88.86655 -19.15951 -19.15905 -19.06614
 Alpha  occ. eigenvalues --  -19.06590 -19.06489 -19.06186 -14.34578 -14.34360
 Alpha  occ. eigenvalues --  -10.25053 -10.24872 -10.24864 -10.24863 -10.23589
 Alpha  occ. eigenvalues --  -10.23334 -10.22295 -10.22229 -10.20995 -10.20295
 Alpha  occ. eigenvalues --  -10.20264 -10.19860 -10.18512 -10.18372 -10.18126
 Alpha  occ. eigenvalues --  -10.18042 -10.17922 -10.17416 -10.16867 -10.16031
 Alpha  occ. eigenvalues --  -10.15585 -10.15355 -10.15285 -10.15272 -10.15224
 Alpha  occ. eigenvalues --  -10.15157  -7.96241  -7.95232  -5.92548  -5.92165
 Alpha  occ. eigenvalues --   -5.91811  -5.91551  -5.91166  -5.90778  -1.07251
 Alpha  occ. eigenvalues --   -1.07121  -1.02308  -1.02235  -0.99820  -0.99739
 Alpha  occ. eigenvalues --   -0.91058  -0.90824  -0.88954  -0.87371  -0.86071
 Alpha  occ. eigenvalues --   -0.81211  -0.79004  -0.77427  -0.75479  -0.74216
 Alpha  occ. eigenvalues --   -0.73640  -0.72672  -0.71637  -0.71228  -0.69183
 Alpha  occ. eigenvalues --   -0.68715  -0.67933  -0.66307  -0.62503  -0.61733
 Alpha  occ. eigenvalues --   -0.60895  -0.59738  -0.59026  -0.57285  -0.55049
 Alpha  occ. eigenvalues --   -0.54922  -0.53494  -0.53401  -0.52814  -0.50535
 Alpha  occ. eigenvalues --   -0.49343  -0.48386  -0.47423  -0.47104  -0.47084
 Alpha  occ. eigenvalues --   -0.46613  -0.46025  -0.45748  -0.45426  -0.44773
 Alpha  occ. eigenvalues --   -0.44448  -0.44342  -0.44189  -0.42575  -0.42197
 Alpha  occ. eigenvalues --   -0.41625  -0.41072  -0.40907  -0.40534  -0.40316
 Alpha  occ. eigenvalues --   -0.40077  -0.39981  -0.39189  -0.38201  -0.38179
 Alpha  occ. eigenvalues --   -0.37876  -0.37729  -0.37339  -0.36915  -0.36738
 Alpha  occ. eigenvalues --   -0.36453  -0.36208  -0.35147  -0.34670  -0.34532
 Alpha  occ. eigenvalues --   -0.33335  -0.33068  -0.32715  -0.32357  -0.31587
 Alpha  occ. eigenvalues --   -0.30020  -0.27756  -0.26679  -0.26232  -0.25720
 Alpha  occ. eigenvalues --   -0.25511  -0.25031  -0.24356  -0.24229  -0.23971
 Alpha  occ. eigenvalues --   -0.23444  -0.23338  -0.20819  -0.18273  -0.13162
 Alpha virt. eigenvalues --   -0.04199  -0.03454  -0.01134  -0.00357  -0.00048
 Alpha virt. eigenvalues --    0.00347   0.00543   0.00987   0.01220   0.01358
 Alpha virt. eigenvalues --    0.01723   0.02574   0.02694   0.03052   0.03154

 Mulliken charges:
               1
     1  C    0.411521
     2  C    0.001375
     3  C    0.189634
     4  C    0.144471
     5  C    0.251191
     6  C   -0.558766
     7  C    0.207277
     8  C   -0.202570
     9  C    0.368905
    10  C   -0.341137
    11  C    0.189813
    12  C    0.159022
    13  C   -0.559424
    14  C   -0.656619
    15  H    0.121941
    16  H    0.122544
    17  H    0.116253
    18  N   -0.173570
    19  N   -0.160881
    20  O   -0.527302
    21  O   -0.515800
    22  O   -0.515235
    23  O   -0.387480
    24  C   -0.216158
    25  H    0.159144
    26  H    0.160480
    27  H    0.168315
    28  C   -0.199445
    29  H    0.159142
    30  H    0.159487
    31  H    0.167754
    32  C    0.047845
    33  C   -0.421218
    34  S   -0.194198
    35  C   -0.137784
    36  H    0.132891
    37  C    0.208543
    38  O   -0.173095
    39  C    0.751232
    40  C   -0.236186
    41  C    0.035910
    42  S   -0.254446
    43  H    0.172209
    44  H    0.162432
    45  H    0.159539
    46  C   -0.524991
    47  O   -0.178948
    48  C   -0.371432
    49  H    0.157099
    50  C   -0.247127
    51  H    0.183820
    52  H    0.155741
    53  H    0.171056
    54  H    0.157227
 Sum of Mulliken charges =  -2.00000

 Dipole moment (field-independent basis, Debye):
    X=            -28.0286    Y=             -2.6315    Z=             -0.2421  Tot=             28.1529
 Quadrupole moment (field-independent basis, Debye-Ang):
   XX=           -380.7298   YY=           -316.4225   ZZ=           -205.8209
   XY=             -1.4447   XZ=            -22.5891   YZ=              4.0120

 Normal termination of Gaussian 16 at Thu Oct 28 13:20:44 2021.
