 Gaussian 16, Revision C.01,
 Gaussian 16:  ES64L-G16RevC.01  3-Jul-2019

 ---------------------------------------------------------------
 # opt=modredundant b3lyp/6-311+g(d,p) scrf=(pcm, solvent=water)
 ---------------------------------------------------------------

 ------------
 NDI_-135.pdb
 ------------
 Symbolic Z-matrix:
 Charge = -2 Multiplicity = 1

 SCF Done:  E(RB3LYP) =  -2359.59491634     A.U. after   16 cycles
 SCF Done:  E(RB3LYP) =  -2359.61095670     A.U. after   16 cycles
 SCF Done:  E(RB3LYP) =  -2359.62034076     A.U. after   16 cycles
 SCF Done:  E(RB3LYP) =  -2359.62243686     A.U. after   15 cycles
 SCF Done:  E(RB3LYP) =  -2359.62353392     A.U. after   15 cycles
 SCF Done:  E(RB3LYP) =  -2359.62452319     A.U. after   15 cycles
 SCF Done:  E(RB3LYP) =  -2359.62501592     A.U. after   14 cycles
 SCF Done:  E(RB3LYP) =  -2359.62515090     A.U. after   14 cycles
 SCF Done:  E(RB3LYP) =  -2359.62523115     A.U. after   12 cycles
 SCF Done:  E(RB3LYP) =  -2359.62521246     A.U. after   12 cycles
 SCF Done:  E(RB3LYP) =  -2359.62529057     A.U. after   10 cycles
 SCF Done:  E(RB3LYP) =  -2359.62529892     A.U. after   11 cycles
 SCF Done:  E(RB3LYP) =  -2359.62529977     A.U. after   10 cycles
 SCF Done:  E(RB3LYP) =  -2359.62530021     A.U. after    9 cycles
 SCF Done:  E(RB3LYP) =  -2359.62530016     A.U. after    8 cycles
 SCF Done:  E(RB3LYP) =  -2359.62530024     A.U. after    8 cycles
 SCF Done:  E(RB3LYP) =  -2359.62530032     A.U. after    8 cycles
 SCF Done:  E(RB3LYP) =  -2359.62530046     A.U. after    8 cycles
 SCF Done:  E(RB3LYP) =  -2359.62530054     A.U. after    8 cycles
 SCF Done:  E(RB3LYP) =  -2359.62530053     A.U. after    8 cycles
 Optimization completed.
    -- Stationary point found.

                         Standard orientation:
 ---------------------------------------------------------------------
 Center     Atomic      Atomic             Coordinates (Angstroms)
 Number     Number       Type             X           Y           Z
 ---------------------------------------------------------------------
      1          6           0       -3.474148   -2.696234    0.375650
      2          6           0       -2.764227   -1.489280    0.069717
      3          6           0       -3.426636   -0.237163    0.136365
      4          6           0       -4.790320   -0.150990    0.507862
      5          6           0       -5.526867   -1.340956    0.833055
      6          6           0       -1.370698   -1.536795   -0.224520
      7          6           0       -2.692347    0.962078   -0.201948
      8          6           0       -1.321740    0.875005   -0.588033
      9          6           0       -0.641886   -0.411280   -0.521689
     10          6           0       -0.696418    2.040538   -1.149657
     11          6           0       -2.710561    3.411071   -0.560875
     12          6           0       -3.380743    2.203186   -0.175107
     13          6           0       -4.759457    2.257693    0.214833
     14          6           0       -5.441005    1.125383    0.547700
     15          1           0       -6.484415    1.162827    0.834901
     16          1           0       -5.244392    3.226016    0.227014
     17          1           0       -0.868234   -2.491273   -0.131992
     18          7           0       -1.396768    3.261514   -1.028569
     19          7           0       -4.824962   -2.558706    0.739147
     20          8           0       -2.975390   -3.847761    0.343513
     21          8           0       -6.731870   -1.345586    1.182199
     22          8           0       -3.235088    4.551581   -0.523904
     23          8           0        0.404181    2.062117   -1.746537
     24          6           0       -0.700377    4.453120   -1.518319
     25          1           0        0.313450    4.474941   -1.120614
     26          1           0       -0.636597    4.446263   -2.609684
     27          1           0       -1.259010    5.325137   -1.193923
     28          6           0       -5.539305   -3.799030    1.050017
     29          1           0       -5.477105   -4.488168    0.206853
     30          1           0       -5.094236   -4.286631    1.919868
     31          1           0       -6.574373   -3.546715    1.255961
     32          6           0        0.819557   -0.573952   -0.608230
     33          6           0        1.518491   -1.495378   -1.349118
     34         16           0        1.898137    0.287410    0.470380
     35          6           0        2.915327   -1.499043   -1.077569
     36          1           0        1.040207   -2.134982   -2.076783
     37          6           0        3.317486   -0.589947   -0.111185
     38          8           0        3.845393   -2.292561   -1.685467
     39          6           0        4.652468   -0.328647    0.372071
     40          6           0        3.396742   -3.194853   -2.700233
     41          6           0        5.055802    0.550189    1.369148
     42         16           0        6.073626   -1.144907   -0.281593
     43          1           0        4.285598   -3.717058   -3.049294
     44          1           0        2.683869   -3.918772   -2.295540
     45          1           0        2.940332   -2.653363   -3.533643
     46          6           0        6.462493    0.571280    1.601570
     47          8           0        4.124229    1.297100    2.030857
     48          6           0        7.136726   -0.291056    0.784895
     49          1           0        6.949479    1.193026    2.338829
     50          6           0        4.584492    2.189442    3.048612
     51          1           0        8.198411   -0.481034    0.748272
     52          1           0        5.263385    2.941075    2.635504
     53          1           0        3.695198    2.679996    3.439663
     54          1           0        5.083593    1.643626    3.854604
 ---------------------------------------------------------------------

 The electronic state is 1-A.
 Alpha  occ. eigenvalues --  -88.87617 -88.86456 -19.15893 -19.15861 -19.06810
 Alpha  occ. eigenvalues --  -19.06716 -19.06611 -19.06323 -14.34667 -14.34386
 Alpha  occ. eigenvalues --  -10.25246 -10.25010 -10.24989 -10.24911 -10.23516
 Alpha  occ. eigenvalues --  -10.23257 -10.22268 -10.22203 -10.20951 -10.20231
 Alpha  occ. eigenvalues --  -10.20185 -10.19794 -10.18566 -10.18442 -10.18139
 Alpha  occ. eigenvalues --  -10.18000 -10.17963 -10.17431 -10.16783 -10.15865
 Alpha  occ. eigenvalues --  -10.15772 -10.15523 -10.15401 -10.15378 -10.15336
 Alpha  occ. eigenvalues --  -10.15261  -7.96181  -7.95033  -5.92489  -5.92107
 Alpha  occ. eigenvalues --   -5.91751  -5.91355  -5.90974  -5.90568  -1.07192
 Alpha  occ. eigenvalues --   -1.07075  -1.02473  -1.02314  -1.00017  -0.99846
 Alpha  occ. eigenvalues --   -0.91182  -0.90914  -0.88874  -0.87331  -0.86113
 Alpha  occ. eigenvalues --   -0.81311  -0.79082  -0.77422  -0.75427  -0.74185
 Alpha  occ. eigenvalues --   -0.73702  -0.72719  -0.71643  -0.71213  -0.69155
 Alpha  occ. eigenvalues --   -0.68755  -0.67959  -0.66313  -0.62569  -0.61806
 Alpha  occ. eigenvalues --   -0.60968  -0.59842  -0.58937  -0.57266  -0.55038
 Alpha  occ. eigenvalues --   -0.54891  -0.53547  -0.53377  -0.52859  -0.50613
 Alpha  occ. eigenvalues --   -0.49568  -0.48060  -0.47384  -0.47107  -0.47065
 Alpha  occ. eigenvalues --   -0.46615  -0.46108  -0.45812  -0.45464  -0.44848
 Alpha  occ. eigenvalues --   -0.44460  -0.44343  -0.44159  -0.42766  -0.42222
 Alpha  occ. eigenvalues --   -0.41428  -0.41187  -0.40910  -0.40510  -0.40404
 Alpha  occ. eigenvalues --   -0.40202  -0.40001  -0.39226  -0.38324  -0.38243
 Alpha  occ. eigenvalues --   -0.37924  -0.37647  -0.37445  -0.36951  -0.36848
 Alpha  occ. eigenvalues --   -0.36364  -0.36224  -0.35091  -0.34927  -0.34483
 Alpha  occ. eigenvalues --   -0.33333  -0.33021  -0.32735  -0.32372  -0.31732
 Alpha  occ. eigenvalues --   -0.30110  -0.27798  -0.26726  -0.26389  -0.25799
 Alpha  occ. eigenvalues --   -0.25638  -0.25042  -0.24536  -0.24182  -0.23861
 Alpha  occ. eigenvalues --   -0.23718  -0.23150  -0.20890  -0.18154  -0.13224
 Alpha virt. eigenvalues --   -0.04613  -0.03399  -0.01281  -0.00485  -0.00053
 Alpha virt. eigenvalues --    0.00570   0.00866   0.00950   0.01154   0.01548
 Alpha virt. eigenvalues --    0.01955   0.02588   0.02766   0.03083   0.03191

 Mulliken charges:
               1
     1  C    0.335083
     2  C   -0.152847
     3  C    0.114010
     4  C    0.154963
     5  C    0.216867
     6  C   -0.325886
     7  C    0.201849
     8  C    0.011304
     9  C    0.279574
    10  C   -0.451232
    11  C    0.276272
    12  C    0.048922
    13  C   -0.509871
    14  C   -0.568265
    15  H    0.122586
    16  H    0.123077
    17  H    0.123562
    18  N   -0.074273
    19  N   -0.157856
    20  O   -0.526948
    21  O   -0.509895
    22  O   -0.517202
    23  O   -0.452659
    24  C   -0.177877
    25  H    0.163166
    26  H    0.162540
    27  H    0.168277
    28  C   -0.198546
    29  H    0.158930
    30  H    0.161408
    31  H    0.168464
    32  C    0.177283
    33  C   -0.574345
    34  S   -0.589201
    35  C   -0.137519
    36  H    0.144103
    37  C    0.475830
    38  O   -0.171586
    39  C    0.812098
    40  C   -0.235539
    41  C    0.009962
    42  S   -0.246411
    43  H    0.172022
    44  H    0.160035
    45  H    0.161175
    46  C   -0.585136
    47  O   -0.168742
    48  C   -0.345987
    49  H    0.156886
    50  C   -0.249275
    51  H    0.183645
    52  H    0.156741
    53  H    0.170995
    54  H    0.155469
 Sum of Mulliken charges =  -2.00000

 Dipole moment (field-independent basis, Debye):
    X=             26.8168    Y=             -3.1883    Z=              1.4354  Tot=             27.0438
 Quadrupole moment (field-independent basis, Debye-Ang):
   XX=           -373.2122   YY=           -297.9877   ZZ=           -227.1898
   XY=             10.7519   XZ=             25.7589   YZ=             27.4438

 Normal termination of Gaussian 16 at Thu Oct 28 10:46:49 2021.
