 Gaussian 16, Revision C.01,
 Gaussian 16:  ES64L-G16RevC.01  3-Jul-2019

 ---------------------------------------------------------------
 # opt=modredundant b3lyp/6-311+g(d,p) scrf=(pcm, solvent=water)
 ---------------------------------------------------------------

 ------------
 NDI_-140.pdb
 ------------
 Symbolic Z-matrix:
 Charge = -2 Multiplicity = 1

 SCF Done:  E(RB3LYP) =  -2359.59147048     A.U. after   16 cycles
 SCF Done:  E(RB3LYP) =  -2359.60778130     A.U. after   16 cycles
 SCF Done:  E(RB3LYP) =  -2359.61859848     A.U. after   16 cycles
 SCF Done:  E(RB3LYP) =  -2359.62124998     A.U. after   15 cycles
 SCF Done:  E(RB3LYP) =  -2359.62236772     A.U. after   16 cycles
 SCF Done:  E(RB3LYP) =  -2359.62354379     A.U. after   16 cycles
 SCF Done:  E(RB3LYP) =  -2359.62440703     A.U. after   15 cycles
 SCF Done:  E(RB3LYP) =  -2359.62476148     A.U. after   15 cycles
 SCF Done:  E(RB3LYP) =  -2359.62497302     A.U. after   13 cycles
 SCF Done:  E(RB3LYP) =  -2359.62506290     A.U. after   12 cycles
 SCF Done:  E(RB3LYP) =  -2359.62518392     A.U. after   10 cycles
 SCF Done:  E(RB3LYP) =  -2359.62518409     A.U. after    9 cycles
 SCF Done:  E(RB3LYP) =  -2359.62518408     A.U. after    9 cycles
 SCF Done:  E(RB3LYP) =  -2359.62518388     A.U. after    9 cycles
 SCF Done:  E(RB3LYP) =  -2359.62518350     A.U. after    9 cycles
 SCF Done:  E(RB3LYP) =  -2359.62518407     A.U. after   10 cycles
 SCF Done:  E(RB3LYP) =  -2359.62518378     A.U. after    9 cycles
 SCF Done:  E(RB3LYP) =  -2359.62518386     A.U. after    7 cycles
 SCF Done:  E(RB3LYP) =  -2359.62518410     A.U. after    9 cycles
 SCF Done:  E(RB3LYP) =  -2359.62518386     A.U. after    9 cycles
 Optimization completed on the basis of negligible forces.
    -- Stationary point found.

                         Standard orientation:
 ---------------------------------------------------------------------
 Center     Atomic      Atomic             Coordinates (Angstroms)
 Number     Number       Type             X           Y           Z
 ---------------------------------------------------------------------
      1          6           0       -3.481552   -2.691759    0.363417
      2          6           0       -2.767680   -1.487453    0.055561
      3          6           0       -3.421800   -0.231592    0.136420
      4          6           0       -4.780765   -0.139093    0.522095
      5          6           0       -5.521229   -1.326666    0.848938
      6          6           0       -1.377118   -1.541603   -0.248720
      7          6           0       -2.683228    0.964674   -0.202417
      8          6           0       -1.317175    0.871053   -0.602750
      9          6           0       -0.642755   -0.419230   -0.547417
     10          6           0       -0.696289    2.032183   -1.177885
     11          6           0       -2.690979    3.414741   -0.553887
     12          6           0       -3.364185    2.209468   -0.164123
     13          6           0       -4.738460    2.270460    0.239503
     14          6           0       -5.423486    1.140684    0.574425
     15          1           0       -6.463836    1.182908    0.871852
     16          1           0       -5.217694    3.241473    0.259809
     17          1           0       -0.879590   -2.498666   -0.157323
     18          7           0       -1.384957    3.258356   -1.039705
     19          7           0       -4.827762   -2.547978    0.741731
     20          8           0       -2.990077   -3.845861    0.321123
     21          8           0       -6.722325   -1.325539    1.210525
     22          8           0       -3.207507    4.558382   -0.506276
     23          8           0        0.390174    2.045750   -1.800288
     24          6           0       -0.688716    4.447331   -1.535938
     25          1           0        0.338871    4.446175   -1.175320
     26          1           0       -0.665059    4.458909   -2.629068
     27          1           0       -1.221326    5.322527   -1.177835
     28          6           0       -5.545880   -3.785595    1.054818
     29          1           0       -5.494854   -4.472115    0.208793
     30          1           0       -5.095663   -4.278462    1.919045
     31          1           0       -6.577650   -3.528511    1.271068
     32          6           0        0.817290   -0.587572   -0.624576
     33          6           0        1.512530   -1.563691   -1.298324
     34         16           0        1.898487    0.328206    0.406249
     35          6           0        2.905744   -1.567232   -1.013606
     36          1           0        1.033173   -2.243795   -1.987532
     37          6           0        3.311025   -0.603893   -0.102158
     38          8           0        3.831392   -2.407714   -1.562463
     39          6           0        4.644907   -0.328340    0.375436
     40          6           0        3.379804   -3.369080   -2.519943
     41          6           0        5.053235    0.617933    1.306807
     42         16           0        6.057811   -1.220603   -0.191582
     43          1           0        4.265104   -3.922543   -2.827414
     44          1           0        2.655768   -4.057327   -2.074819
     45          1           0        2.935503   -2.877945   -3.390277
     46          6           0        6.456813    0.629843    1.557594
     47          8           0        4.128657    1.433137    1.893617
     48          6           0        7.124008   -0.307044    0.821157
     49          1           0        6.946744    1.298357    2.250676
     50          6           0        4.592031    2.383830    2.855511
     51          1           0        8.182119   -0.519059    0.814272
     52          1           0        5.295442    3.089620    2.404328
     53          1           0        3.707914    2.920188    3.194738
     54          1           0        5.064268    1.884588    3.706609
 ---------------------------------------------------------------------

 The electronic state is 1-A.
 Alpha  occ. eigenvalues --  -88.87601 -88.86431 -19.15878 -19.15847 -19.06845
 Alpha  occ. eigenvalues --  -19.06740 -19.06626 -19.06333 -14.34684 -14.34388
 Alpha  occ. eigenvalues --  -10.25281 -10.25036 -10.25002 -10.24915 -10.23495
 Alpha  occ. eigenvalues --  -10.23235 -10.22259 -10.22195 -10.20941 -10.20223
 Alpha  occ. eigenvalues --  -10.20158 -10.19775 -10.18576 -10.18454 -10.18144
 Alpha  occ. eigenvalues --  -10.17988 -10.17967 -10.17446 -10.16752 -10.15846
 Alpha  occ. eigenvalues --  -10.15801 -10.15553 -10.15417 -10.15395 -10.15353
 Alpha  occ. eigenvalues --  -10.15275  -7.96166  -7.95006  -5.92474  -5.92091
 Alpha  occ. eigenvalues --   -5.91735  -5.91328  -5.90947  -5.90541  -1.07177
 Alpha  occ. eigenvalues --   -1.07062  -1.02505  -1.02326  -1.00054  -0.99860
 Alpha  occ. eigenvalues --   -0.91206  -0.90926  -0.88856  -0.87321  -0.86117
 Alpha  occ. eigenvalues --   -0.81325  -0.79095  -0.77416  -0.75415  -0.74178
 Alpha  occ. eigenvalues --   -0.73706  -0.72728  -0.71641  -0.71206  -0.69150
 Alpha  occ. eigenvalues --   -0.68760  -0.67962  -0.66307  -0.62581  -0.61818
 Alpha  occ. eigenvalues --   -0.60977  -0.59863  -0.58913  -0.57260  -0.55034
 Alpha  occ. eigenvalues --   -0.54881  -0.53564  -0.53361  -0.52866  -0.50625
 Alpha  occ. eigenvalues --   -0.49599  -0.48004  -0.47373  -0.47106  -0.47056
 Alpha  occ. eigenvalues --   -0.46610  -0.46124  -0.45824  -0.45466  -0.44859
 Alpha  occ. eigenvalues --   -0.44463  -0.44338  -0.44155  -0.42789  -0.42227
 Alpha  occ. eigenvalues --   -0.41386  -0.41203  -0.40909  -0.40503  -0.40410
 Alpha  occ. eigenvalues --   -0.40214  -0.40008  -0.39227  -0.38344  -0.38252
 Alpha  occ. eigenvalues --   -0.37938  -0.37629  -0.37455  -0.36971  -0.36872
 Alpha  occ. eigenvalues --   -0.36340  -0.36223  -0.35090  -0.34945  -0.34482
 Alpha  occ. eigenvalues --   -0.33326  -0.33007  -0.32755  -0.32342  -0.31753
 Alpha  occ. eigenvalues --   -0.30131  -0.27811  -0.26736  -0.26416  -0.25812
 Alpha  occ. eigenvalues --   -0.25659  -0.25047  -0.24556  -0.24210  -0.23818
 Alpha  occ. eigenvalues --   -0.23755  -0.23103  -0.20905  -0.18118  -0.13229
 Alpha virt. eigenvalues --   -0.04690  -0.03390  -0.01307  -0.00498  -0.00057
 Alpha virt. eigenvalues --    0.00577   0.00934   0.00942   0.01172   0.01575
 Alpha virt. eigenvalues --    0.02006   0.02592   0.02772   0.03077   0.03222

 Mulliken charges:
               1
     1  C    0.331103
     2  C   -0.151291
     3  C    0.110164
     4  C    0.164355
     5  C    0.212020
     6  C   -0.292179
     7  C    0.193744
     8  C    0.029702
     9  C    0.280695
    10  C   -0.469207
    11  C    0.278586
    12  C    0.039741
    13  C   -0.510233
    14  C   -0.558027
    15  H    0.122776
    16  H    0.123188
    17  H    0.124873
    18  N   -0.064978
    19  N   -0.157845
    20  O   -0.526217
    21  O   -0.508669
    22  O   -0.517191
    23  O   -0.456313
    24  C   -0.180458
    25  H    0.163622
    26  H    0.162906
    27  H    0.168107
    28  C   -0.197836
    29  H    0.158976
    30  H    0.161578
    31  H    0.168377
    32  C    0.142428
    33  C   -0.599250
    34  S   -0.627209
    35  C   -0.112819
    36  H    0.145605
    37  C    0.518841
    38  O   -0.172408
    39  C    0.817604
    40  C   -0.234999
    41  C    0.005135
    42  S   -0.243338
    43  H    0.172106
    44  H    0.160166
    45  H    0.160521
    46  C   -0.600025
    47  O   -0.167920
    48  C   -0.342413
    49  H    0.156809
    50  C   -0.249720
    51  H    0.183627
    52  H    0.156323
    53  H    0.171162
    54  H    0.155703
 Sum of Mulliken charges =  -2.00000

 Dipole moment (field-independent basis, Debye):
    X=             26.6128    Y=             -3.2307    Z=              1.5458  Tot=             26.8527
 Quadrupole moment (field-independent basis, Debye-Ang):
   XX=           -372.1925   YY=           -295.8429   ZZ=           -229.8111
   XY=             11.4115   XZ=             25.9348   YZ=             27.0957

 Normal termination of Gaussian 16 at Thu Oct 28 11:10:44 2021.
