 Gaussian 16, Revision C.01,
 Gaussian 16:  ES64L-G16RevC.01  3-Jul-2019

 ---------------------------------------------------------------
 # opt=modredundant b3lyp/6-311+g(d,p) scrf=(pcm, solvent=water)
 ---------------------------------------------------------------

 -----------
 NDI_-45.pdb
 -----------
 Symbolic Z-matrix:
 Charge = -2 Multiplicity = 1

 SCF Done:  E(RB3LYP) =  -2359.60657367     A.U. after   16 cycles
 SCF Done:  E(RB3LYP) =  -2359.62213374     A.U. after   14 cycles
 SCF Done:  E(RB3LYP) =  -2359.62484921     A.U. after   14 cycles
 SCF Done:  E(RB3LYP) =  -2359.62514681     A.U. after   13 cycles
 SCF Done:  E(RB3LYP) =  -2359.62530493     A.U. after   13 cycles
 SCF Done:  E(RB3LYP) =  -2359.62536724     A.U. after   11 cycles
 SCF Done:  E(RB3LYP) =  -2359.62539163     A.U. after   12 cycles
 SCF Done:  E(RB3LYP) =  -2359.62540613     A.U. after   11 cycles
 SCF Done:  E(RB3LYP) =  -2359.62541365     A.U. after   11 cycles
 SCF Done:  E(RB3LYP) =  -2359.62542448     A.U. after   11 cycles
 SCF Done:  E(RB3LYP) =  -2359.62544448     A.U. after    9 cycles
 SCF Done:  E(RB3LYP) =  -2359.62544481     A.U. after    9 cycles
 SCF Done:  E(RB3LYP) =  -2359.62544508     A.U. after    9 cycles
 SCF Done:  E(RB3LYP) =  -2359.62544528     A.U. after    9 cycles
 SCF Done:  E(RB3LYP) =  -2359.62544547     A.U. after   10 cycles
 SCF Done:  E(RB3LYP) =  -2359.62544554     A.U. after   10 cycles
 SCF Done:  E(RB3LYP) =  -2359.62544565     A.U. after    8 cycles
 SCF Done:  E(RB3LYP) =  -2359.62544567     A.U. after    8 cycles
 SCF Done:  E(RB3LYP) =  -2359.62544570     A.U. after    8 cycles
 SCF Done:  E(RB3LYP) =  -2359.62544572     A.U. after    8 cycles
 Optimization completed.
    -- Stationary point found.

                         Standard orientation:
 ---------------------------------------------------------------------
 Center     Atomic      Atomic             Coordinates (Angstroms)
 Number     Number       Type             X           Y           Z
 ---------------------------------------------------------------------
      1          6           0        2.804174   -2.948824    0.388415
      2          6           0        2.400286   -1.589160    0.179733
      3          6           0        3.374020   -0.562922    0.083062
      4          6           0        4.754548   -0.854843    0.194825
      5          6           0        5.192597   -2.206937    0.409162
      6          6           0        1.017301   -1.255488    0.151325
      7          6           0        2.936509    0.795767   -0.150359
      8          6           0        1.545116    1.089059   -0.276668
      9          6           0        0.569224    0.031197   -0.035828
     10          6           0        1.166071    2.393957   -0.746753
     11          6           0        3.549325    3.156127   -0.578660
     12          6           0        3.927049    1.803903   -0.285906
     13          6           0        5.316681    1.478377   -0.152935
     14          6           0        5.719770    0.197871    0.081947
     15          1           0        6.769032   -0.052561    0.175993
     16          1           0        6.036494    2.281106   -0.254663
     17          1           0        0.310640   -2.046519    0.368539
     18          7           0        2.182769    3.375623   -0.798388
     19          7           0        4.185862   -3.189156    0.482338
     20          8           0        2.016761   -3.920314    0.492429
     21          8           0        6.395544   -2.542157    0.525826
     22          8           0        4.360465    4.110700   -0.668667
     23          8           0        0.023580    2.732627   -1.129274
     24          6           0        1.755979    4.717914   -1.199662
     25          1           0        1.439535    4.726583   -2.245615
     26          1           0        0.911370    5.036238   -0.588931
     27          1           0        2.597762    5.389782   -1.066619
     28          6           0        4.587237   -4.583239    0.684490
     29          1           0        4.216634   -4.951783    1.643332
     30          1           0        4.169628   -5.210429   -0.103958
     31          1           0        5.671266   -4.626146    0.666415
     32          6           0       -0.863470    0.288166    0.172752
     33          6           0       -1.475088    1.236006    0.955986
     34         16           0       -2.058441   -0.764086   -0.557807
     35          6           0       -2.888422    1.111444    0.991881
     36          1           0       -0.920335    1.992523    1.489671
     37          6           0       -3.402041    0.070836    0.229105
     38          8           0       -3.742217    1.904499    1.703611
     39          6           0       -4.778889   -0.323889    0.060357
     40          6           0       -3.180405    2.962217    2.485040
     41          6           0       -5.293808   -1.360172   -0.708439
     42         16           0       -6.111239    0.510580    0.862017
     43          1           0       -4.022654    3.462878    2.958954
     44          1           0       -2.509683    2.568726    3.254085
     45          1           0       -2.640737    3.673442    1.853616
     46          6           0       -6.713152   -1.482977   -0.657145
     47          8           0       -4.446256   -2.153044   -1.427961
     48          6           0       -7.287331   -0.541651    0.149000
     49          1           0       -7.280134   -2.230949   -1.192373
     50          6           0       -5.018469   -3.204515   -2.209284
     51          1           0       -8.334697   -0.400570    0.367322
     52          1           0       -5.696599   -2.805717   -2.969365
     53          1           0       -4.182654   -3.704150   -2.695296
     54          1           0       -5.552279   -3.919470   -1.576475
 ---------------------------------------------------------------------

 The electronic state is 1-A.
 Alpha  occ. eigenvalues --  -88.87582 -88.86709 -19.15880 -19.15822 -19.06868
 Alpha  occ. eigenvalues --  -19.06761 -19.06606 -19.06213 -14.34702 -14.34356
 Alpha  occ. eigenvalues --  -10.25301 -10.25056 -10.24981 -10.24879 -10.23451
 Alpha  occ. eigenvalues --  -10.23257 -10.22262 -10.22170 -10.20947 -10.20118
 Alpha  occ. eigenvalues --  -10.20085 -10.19740 -10.18587 -10.18419 -10.18168
 Alpha  occ. eigenvalues --  -10.17979 -10.17960 -10.17580 -10.16544 -10.15904
 Alpha  occ. eigenvalues --  -10.15821 -10.15561 -10.15411 -10.15402 -10.15344
 Alpha  occ. eigenvalues --  -10.15265  -7.96146  -7.95279  -5.92455  -5.92072
 Alpha  occ. eigenvalues --   -5.91715  -5.91598  -5.91217  -5.90823  -1.07168
 Alpha  occ. eigenvalues --   -1.07046  -1.02531  -1.02296  -1.00083  -0.99823
 Alpha  occ. eigenvalues --   -0.91230  -0.90875  -0.88865  -0.87338  -0.86125
 Alpha  occ. eigenvalues --   -0.81323  -0.79099  -0.77366  -0.75477  -0.74266
 Alpha  occ. eigenvalues --   -0.73491  -0.72873  -0.71594  -0.71243  -0.69152
 Alpha  occ. eigenvalues --   -0.68792  -0.67951  -0.66231  -0.62663  -0.61780
 Alpha  occ. eigenvalues --   -0.60988  -0.59934  -0.58847  -0.57251  -0.55014
 Alpha  occ. eigenvalues --   -0.54871  -0.53536  -0.53329  -0.52882  -0.50722
 Alpha  occ. eigenvalues --   -0.49493  -0.48186  -0.47369  -0.47046  -0.46952
 Alpha  occ. eigenvalues --   -0.46675  -0.46112  -0.45765  -0.45470  -0.44882
 Alpha  occ. eigenvalues --   -0.44450  -0.44296  -0.44205  -0.42589  -0.41985
 Alpha  occ. eigenvalues --   -0.41746  -0.41106  -0.40850  -0.40475  -0.40448
 Alpha  occ. eigenvalues --   -0.40202  -0.40010  -0.39097  -0.38323  -0.38252
 Alpha  occ. eigenvalues --   -0.38176  -0.37701  -0.37386  -0.36945  -0.36907
 Alpha  occ. eigenvalues --   -0.36427  -0.36157  -0.35073  -0.34938  -0.34489
 Alpha  occ. eigenvalues --   -0.33327  -0.32956  -0.32770  -0.32533  -0.31692
 Alpha  occ. eigenvalues --   -0.30306  -0.27866  -0.26702  -0.26394  -0.25808
 Alpha  occ. eigenvalues --   -0.25639  -0.25025  -0.24678  -0.24227  -0.23822
 Alpha  occ. eigenvalues --   -0.23784  -0.22904  -0.20906  -0.18064  -0.13221
 Alpha virt. eigenvalues --   -0.04770  -0.03344  -0.01381  -0.00452  -0.00036
 Alpha virt. eigenvalues --    0.00604   0.00908   0.00935   0.01380   0.01604
 Alpha virt. eigenvalues --    0.01973   0.02604   0.02677   0.03099   0.03192

 Mulliken charges:
               1
     1  C    0.339453
     2  C   -0.210709
     3  C    0.067316
     4  C    0.177829
     5  C    0.217104
     6  C   -0.467480
     7  C    0.212494
     8  C    0.192787
     9  C    0.421404
    10  C   -0.468743
    11  C    0.233382
    12  C    0.082731
    13  C   -0.520620
    14  C   -0.600772
    15  H    0.122981
    16  H    0.123429
    17  H    0.135407
    18  N   -0.100451
    19  N   -0.156815
    20  O   -0.527222
    21  O   -0.506856
    22  O   -0.514849
    23  O   -0.415999
    24  C   -0.184163
    25  H    0.160878
    26  H    0.160066
    27  H    0.167486
    28  C   -0.200408
    29  H    0.161634
    30  H    0.158991
    31  H    0.167886
    32  C    0.065648
    33  C   -0.453614
    34  S   -0.538532
    35  C   -0.326072
    36  H    0.142951
    37  C    0.621537
    38  O   -0.171207
    39  C    0.745072
    40  C   -0.233880
    41  C   -0.000771
    42  S   -0.239207
    43  H    0.172004
    44  H    0.158913
    45  H    0.159626
    46  C   -0.591594
    47  O   -0.169649
    48  C   -0.341975
    49  H    0.156754
    50  C   -0.250556
    51  H    0.183418
    52  H    0.155835
    53  H    0.170927
    54  H    0.156201
 Sum of Mulliken charges =  -2.00000

 Dipole moment (field-independent basis, Debye):
    X=            -27.0552    Y=             -0.8889    Z=              1.6616  Tot=             27.1207
 Quadrupole moment (field-independent basis, Debye-Ang):
   XX=           -379.1862   YY=           -294.3538   ZZ=           -228.5156
   XY=             10.0964   XZ=              3.2285   YZ=             29.0884

 Normal termination of Gaussian 16 at Thu Oct 28 12:52:51 2021.
