 Gaussian 16, Revision C.01,
 Gaussian 16:  ES64L-G16RevC.01  3-Jul-2019

 ---------------------------------------------------------------
 # opt=modredundant b3lyp/6-311+g(d,p) scrf=(pcm, solvent=water)
 ---------------------------------------------------------------

 ----------
 NDI_95.pdb
 ----------
 Symbolic Z-matrix:
 Charge = -2 Multiplicity = 1

 SCF Done:  E(RB3LYP) =  -2359.60287060     A.U. after   16 cycles
 SCF Done:  E(RB3LYP) =  -2359.62088496     A.U. after   14 cycles
 SCF Done:  E(RB3LYP) =  -2359.62371486     A.U. after   14 cycles
 SCF Done:  E(RB3LYP) =  -2359.62386483     A.U. after   13 cycles
 SCF Done:  E(RB3LYP) =  -2359.62412174     A.U. after   13 cycles
 SCF Done:  E(RB3LYP) =  -2359.62421330     A.U. after   11 cycles
 SCF Done:  E(RB3LYP) =  -2359.62424092     A.U. after   12 cycles
 SCF Done:  E(RB3LYP) =  -2359.62425049     A.U. after   11 cycles
 SCF Done:  E(RB3LYP) =  -2359.62426201     A.U. after   11 cycles
 SCF Done:  E(RB3LYP) =  -2359.62427298     A.U. after   10 cycles
 SCF Done:  E(RB3LYP) =  -2359.62428055     A.U. after   10 cycles
 SCF Done:  E(RB3LYP) =  -2359.62428628     A.U. after   10 cycles
 SCF Done:  E(RB3LYP) =  -2359.62428800     A.U. after   10 cycles
 SCF Done:  E(RB3LYP) =  -2359.62428788     A.U. after   11 cycles
 SCF Done:  E(RB3LYP) =  -2359.62428808     A.U. after    9 cycles
 SCF Done:  E(RB3LYP) =  -2359.62428776     A.U. after    9 cycles
 SCF Done:  E(RB3LYP) =  -2359.62428653     A.U. after    9 cycles
 SCF Done:  E(RB3LYP) =  -2359.62428588     A.U. after    8 cycles
 SCF Done:  E(RB3LYP) =  -2359.62428555     A.U. after    8 cycles
 Optimization completed.
    -- Stationary point found.

                         Standard orientation:
 ---------------------------------------------------------------------
 Center     Atomic      Atomic             Coordinates (Angstroms)
 Number     Number       Type             X           Y           Z
 ---------------------------------------------------------------------
      1          6           0        3.252229   -2.823173   -0.091518
      2          6           0        2.650128   -1.523571   -0.117012
      3          6           0        3.444894   -0.365126    0.061297
      4          6           0        4.843753   -0.466175    0.271197
      5          6           0        5.478178   -1.752516    0.303566
      6          6           0        1.244439   -1.392361   -0.322542
      7          6           0        2.809511    0.934558    0.023446
      8          6           0        1.402085    1.038839   -0.191039
      9          6           0        0.617972   -0.174856   -0.362919
     10          6           0        0.804201    2.345700   -0.236597
     11          6           0        3.045143    3.395576    0.172288
     12          6           0        3.623014    2.085407    0.202116
     13          6           0        5.035528    1.948644    0.414987
     14          6           0        5.626564    0.722061    0.448512
     15          1           0        6.692615    0.617833    0.608542
     16          1           0        5.616470    2.853131    0.546427
     17          1           0        0.665373   -2.298902   -0.446979
     18          7           0        1.661320    3.451862   -0.053147
     19          7           0        4.639465   -2.870866    0.123621
     20          8           0        2.629774   -3.903296   -0.246040
     21          8           0        6.709955   -1.924677    0.479068
     22          8           0        3.697214    4.458200    0.330980
     23          8           0       -0.410248    2.585843   -0.424412
     24          6           0        1.021089    4.768134   -0.106740
     25          1           0        0.516530    4.903158   -1.064626
     26          1           0        0.273538    4.859853    0.683468
     27          1           0        1.793097    5.519745    0.021099
     28          6           0        5.242217   -4.205260    0.154723
     29          1           0        4.766204   -4.814543    0.924541
     30          1           0        5.105780   -4.706354   -0.805693
     31          1           0        6.300072   -4.089863    0.366706
     32          6           0       -0.848512   -0.187704   -0.594048
     33          6           0       -1.525208   -0.245836   -1.781256
     34         16           0       -1.957591   -0.263809    0.752948
     35          6           0       -2.939820   -0.318288   -1.621090
     36          1           0       -1.023046   -0.216446   -2.737570
     37          6           0       -3.370732   -0.334018   -0.303835
     38          8           0       -3.856120   -0.381674   -2.631134
     39          6           0       -4.723625   -0.412800    0.196556
     40          6           0       -3.374890   -0.333972   -3.977168
     41          6           0       -5.157069   -0.429235    1.515407
     42         16           0       -6.125575   -0.501118   -0.869852
     43          1           0       -4.257713   -0.386429   -4.611528
     44          1           0       -2.840961    0.600632   -4.170643
     45          1           0       -2.721137   -1.184146   -4.191202
     46          6           0       -6.572725   -0.508832    1.668377
     47          8           0       -4.244482   -0.372849    2.528564
     48          6           0       -7.222274   -0.553833    0.467985
     49          1           0       -7.083102   -0.531461    2.620322
     50          6           0       -4.736301   -0.367467    3.871249
     51          1           0       -8.284546   -0.615184    0.287785
     52          1           0       -5.288518   -1.285514    4.091820
     53          1           0       -3.857310   -0.310722    4.510394
     54          1           0       -5.375668    0.501328    4.052441
 ---------------------------------------------------------------------

 The electronic state is 1-A.
 Alpha  occ. eigenvalues --  -88.87674 -88.86683 -19.15950 -19.15903 -19.06609
 Alpha  occ. eigenvalues --  -19.06592 -19.06490 -19.06175 -14.34579 -14.34358
 Alpha  occ. eigenvalues --  -10.25046 -10.24873 -10.24865 -10.24856 -10.23585
 Alpha  occ. eigenvalues --  -10.23336 -10.22295 -10.22228 -10.20994 -10.20287
 Alpha  occ. eigenvalues --  -10.20258 -10.19858 -10.18512 -10.18368 -10.18125
 Alpha  occ. eigenvalues --  -10.18040 -10.17924 -10.17419 -10.16852 -10.16026
 Alpha  occ. eigenvalues --  -10.15590 -10.15349 -10.15288 -10.15279 -10.15228
 Alpha  occ. eigenvalues --  -10.15161  -7.96239  -7.95260  -5.92546  -5.92163
 Alpha  occ. eigenvalues --   -5.91809  -5.91578  -5.91193  -5.90807  -1.07249
 Alpha  occ. eigenvalues --   -1.07118  -1.02306  -1.02230  -0.99818  -0.99735
 Alpha  occ. eigenvalues --   -0.91057  -0.90823  -0.88956  -0.87376  -0.86073
 Alpha  occ. eigenvalues --   -0.81212  -0.79006  -0.77423  -0.75482  -0.74222
 Alpha  occ. eigenvalues --   -0.73628  -0.72682  -0.71634  -0.71233  -0.69185
 Alpha  occ. eigenvalues --   -0.68716  -0.67932  -0.66306  -0.62507  -0.61731
 Alpha  occ. eigenvalues --   -0.60891  -0.59747  -0.59025  -0.57285  -0.55048
 Alpha  occ. eigenvalues --   -0.54924  -0.53493  -0.53401  -0.52815  -0.50542
 Alpha  occ. eigenvalues --   -0.49325  -0.48410  -0.47422  -0.47101  -0.47078
 Alpha  occ. eigenvalues --   -0.46616  -0.46023  -0.45746  -0.45429  -0.44773
 Alpha  occ. eigenvalues --   -0.44447  -0.44339  -0.44197  -0.42557  -0.42200
 Alpha  occ. eigenvalues --   -0.41645  -0.41069  -0.40901  -0.40536  -0.40316
 Alpha  occ. eigenvalues --   -0.40070  -0.39983  -0.39185  -0.38199  -0.38175
 Alpha  occ. eigenvalues --   -0.37884  -0.37739  -0.37334  -0.36911  -0.36745
 Alpha  occ. eigenvalues --   -0.36459  -0.36207  -0.35148  -0.34665  -0.34536
 Alpha  occ. eigenvalues --   -0.33323  -0.33058  -0.32730  -0.32361  -0.31583
 Alpha  occ. eigenvalues --   -0.30032  -0.27756  -0.26680  -0.26232  -0.25715
 Alpha  occ. eigenvalues --   -0.25512  -0.25030  -0.24363  -0.24241  -0.23968
 Alpha  occ. eigenvalues --   -0.23435  -0.23327  -0.20820  -0.18269  -0.13162
 Alpha virt. eigenvalues --   -0.04177  -0.03451  -0.01147  -0.00355  -0.00047
 Alpha virt. eigenvalues --    0.00338   0.00538   0.00994   0.01227   0.01342
 Alpha virt. eigenvalues --    0.01717   0.02569   0.02689   0.03045   0.03160

 Mulliken charges:
               1
     1  C    0.417850
     2  C    0.011533
     3  C    0.189925
     4  C    0.145279
     5  C    0.252651
     6  C   -0.605068
     7  C    0.203034
     8  C   -0.192135
     9  C    0.435300
    10  C   -0.361875
    11  C    0.188024
    12  C    0.165733
    13  C   -0.577151
    14  C   -0.654693
    15  H    0.121825
    16  H    0.122554
    17  H    0.115638
    18  N   -0.179604
    19  N   -0.161962
    20  O   -0.527139
    21  O   -0.516356
    22  O   -0.515319
    23  O   -0.375145
    24  C   -0.220299
    25  H    0.158843
    26  H    0.160581
    27  H    0.168336
    28  C   -0.199903
    29  H    0.158850
    30  H    0.159860
    31  H    0.167736
    32  C    0.048893
    33  C   -0.484631
    34  S   -0.131108
    35  C   -0.143049
    36  H    0.132645
    37  C    0.202418
    38  O   -0.175434
    39  C    0.749175
    40  C   -0.234907
    41  C    0.046668
    42  S   -0.254972
    43  H    0.172319
    44  H    0.161995
    45  H    0.159726
    46  C   -0.528985
    47  O   -0.180379
    48  C   -0.375427
    49  H    0.157104
    50  C   -0.246830
    51  H    0.183809
    52  H    0.155950
    53  H    0.171141
    54  H    0.156977
 Sum of Mulliken charges =  -2.00000

 Dipole moment (field-independent basis, Debye):
    X=            -28.0811    Y=             -2.4708    Z=             -0.5103  Tot=             28.1942
 Quadrupole moment (field-independent basis, Debye-Ang):
   XX=           -381.3836   YY=           -316.8543   ZZ=           -205.1175
   XY=              0.4712   XZ=            -21.5859   YZ=             -3.2557

 Normal termination of Gaussian 16 at Thu Oct 28 12:23:08 2021.
