 Gaussian 16, Revision C.01,
 Gaussian 16:  ES64L-G16RevC.01  3-Jul-2019

 ---------------------------------------------------------------
 # opt=modredundant b3lyp/6-311+g(d,p) scrf=(pcm, solvent=water)
 ---------------------------------------------------------------

 ----------
 NDI_90.pdb
 ----------
 Symbolic Z-matrix:
 Charge = -2 Multiplicity = 1

 SCF Done:  E(RB3LYP) =  -2359.60248191     A.U. after   16 cycles
 SCF Done:  E(RB3LYP) =  -2359.62072462     A.U. after   14 cycles
 SCF Done:  E(RB3LYP) =  -2359.62378197     A.U. after   13 cycles
 SCF Done:  E(RB3LYP) =  -2359.62399314     A.U. after   13 cycles
 SCF Done:  E(RB3LYP) =  -2359.62408240     A.U. after   12 cycles
 SCF Done:  E(RB3LYP) =  -2359.62420322     A.U. after   11 cycles
 SCF Done:  E(RB3LYP) =  -2359.62422232     A.U. after   11 cycles
 SCF Done:  E(RB3LYP) =  -2359.62423729     A.U. after   12 cycles
 SCF Done:  E(RB3LYP) =  -2359.62424555     A.U. after   11 cycles
 SCF Done:  E(RB3LYP) =  -2359.62424954     A.U. after   10 cycles
 SCF Done:  E(RB3LYP) =  -2359.62425299     A.U. after   10 cycles
 SCF Done:  E(RB3LYP) =  -2359.62425506     A.U. after    9 cycles
 SCF Done:  E(RB3LYP) =  -2359.62425727     A.U. after   10 cycles
 SCF Done:  E(RB3LYP) =  -2359.62426296     A.U. after   10 cycles
 SCF Done:  E(RB3LYP) =  -2359.62426676     A.U. after   10 cycles
 SCF Done:  E(RB3LYP) =  -2359.62426666     A.U. after   10 cycles
 SCF Done:  E(RB3LYP) =  -2359.62426654     A.U. after    9 cycles
 SCF Done:  E(RB3LYP) =  -2359.62426614     A.U. after    9 cycles
 SCF Done:  E(RB3LYP) =  -2359.62426679     A.U. after   10 cycles
 SCF Done:  E(RB3LYP) =  -2359.62426620     A.U. after   10 cycles
 Optimization completed.
    -- Stationary point found.

                         Standard orientation:
 ---------------------------------------------------------------------
 Center     Atomic      Atomic             Coordinates (Angstroms)
 Number     Number       Type             X           Y           Z
 ---------------------------------------------------------------------
      1          6           0       -3.194463   -2.834853    0.242458
      2          6           0       -2.618717   -1.524036    0.190597
      3          6           0       -3.441293   -0.391947   -0.027698
      4          6           0       -4.842344   -0.530584   -0.197019
      5          6           0       -5.450344   -1.829094   -0.153786
      6          6           0       -1.213415   -1.353747    0.369936
      7          6           0       -2.831803    0.919489   -0.079193
      8          6           0       -1.421115    1.060347    0.085257
      9          6           0       -0.612118   -0.123511    0.331608
     10          6           0       -0.841802    2.373032   -0.005242
     11          6           0       -3.118047    3.363020   -0.364599
     12          6           0       -3.672169    2.043872   -0.299199
     13          6           0       -5.087443    1.869439   -0.461277
     14          6           0       -5.653632    0.631654   -0.413508
     15          1           0       -6.721250    0.498322   -0.537381
     16          1           0       -5.691702    2.753188   -0.624533
     17          1           0       -0.615745   -2.238234    0.552025
     18          7           0       -1.725517    3.452629   -0.215390
     19          7           0       -4.585040   -2.920185    0.063400
     20          8           0       -2.546767   -3.894039    0.433631
     21          8           0       -6.681300   -2.034094   -0.297043
     22          8           0       -3.795547    4.405791   -0.546842
     23          8           0        0.378676    2.638412    0.083058
     24          6           0       -1.104176    4.776502   -0.293318
     25          1           0       -0.546830    4.985616    0.621053
     26          1           0       -0.405270    4.819011   -1.130834
     27          1           0       -1.894208    5.507728   -0.429083
     28          6           0       -5.160878   -4.265866    0.111556
     29          1           0       -4.707972   -4.897093   -0.654790
     30          1           0       -4.971366   -4.724882    1.083670
     31          1           0       -6.229018   -4.178189   -0.057881
     32          6           0        0.852713   -0.085616    0.572466
     33          6           0        1.519879    0.034562    1.760535
     34         16           0        1.972792   -0.354501   -0.739755
     35          6           0        2.935697   -0.053104    1.623290
     36          1           0        1.009769    0.198793    2.698831
     37          6           0        3.377640   -0.263226    0.326374
     38          8           0        3.844246    0.037252    2.638163
     39          6           0        4.734824   -0.411091   -0.145662
     40          6           0        3.353556    0.296379    3.956376
     41          6           0        5.177836   -0.640504   -1.441198
     42         16           0        6.129824   -0.308968    0.928718
     43          1           0        4.231873    0.345958    4.597198
     44          1           0        2.817958    1.249028    3.995686
     45          1           0        2.698561   -0.510139    4.297664
     46          6           0        6.595115   -0.730847   -1.571115
     47          8           0        4.271569   -0.758658   -2.454738
     48          6           0        7.236506   -0.570866   -0.376129
     49          1           0        7.112298   -0.905599   -2.503450
     50          6           0        4.771243   -0.995109   -3.773475
     51          1           0        8.297883   -0.592737   -0.182070
     52          1           0        5.324200   -1.937640   -3.821355
     53          1           0        3.896124   -1.054824   -4.417653
     54          1           0        5.412204   -0.173010   -4.104625
 ---------------------------------------------------------------------

 The electronic state is 1-A.
 Alpha  occ. eigenvalues --  -88.87670 -88.86711 -19.15949 -19.15898 -19.06612
 Alpha  occ. eigenvalues --  -19.06596 -19.06490 -19.06178 -14.34580 -14.34356
 Alpha  occ. eigenvalues --  -10.25045 -10.24879 -10.24868 -10.24851 -10.23574
 Alpha  occ. eigenvalues --  -10.23331 -10.22294 -10.22224 -10.20989 -10.20272
 Alpha  occ. eigenvalues --  -10.20255 -10.19852 -10.18511 -10.18366 -10.18124
 Alpha  occ. eigenvalues --  -10.18038 -10.17926 -10.17427 -10.16830 -10.16015
 Alpha  occ. eigenvalues --  -10.15605 -10.15345 -10.15297 -10.15294 -10.15231
 Alpha  occ. eigenvalues --  -10.15164  -7.96234  -7.95286  -5.92541  -5.92159
 Alpha  occ. eigenvalues --   -5.91804  -5.91605  -5.91219  -5.90834  -1.07248
 Alpha  occ. eigenvalues --   -1.07118  -1.02311  -1.02235  -0.99822  -0.99736
 Alpha  occ. eigenvalues --   -0.91061  -0.90828  -0.88953  -0.87377  -0.86077
 Alpha  occ. eigenvalues --   -0.81213  -0.79009  -0.77419  -0.75483  -0.74225
 Alpha  occ. eigenvalues --   -0.73617  -0.72695  -0.71630  -0.71236  -0.69184
 Alpha  occ. eigenvalues --   -0.68717  -0.67931  -0.66304  -0.62516  -0.61730
 Alpha  occ. eigenvalues --   -0.60892  -0.59760  -0.59015  -0.57282  -0.55046
 Alpha  occ. eigenvalues --   -0.54921  -0.53487  -0.53402  -0.52817  -0.50557
 Alpha  occ. eigenvalues --   -0.49313  -0.48421  -0.47421  -0.47102  -0.47067
 Alpha  occ. eigenvalues --   -0.46620  -0.46026  -0.45749  -0.45431  -0.44776
 Alpha  occ. eigenvalues --   -0.44445  -0.44337  -0.44201  -0.42537  -0.42199
 Alpha  occ. eigenvalues --   -0.41660  -0.41073  -0.40893  -0.40527  -0.40322
 Alpha  occ. eigenvalues --   -0.40074  -0.39984  -0.39174  -0.38201  -0.38174
 Alpha  occ. eigenvalues --   -0.37904  -0.37758  -0.37316  -0.36914  -0.36753
 Alpha  occ. eigenvalues --   -0.36461  -0.36205  -0.35150  -0.34680  -0.34523
 Alpha  occ. eigenvalues --   -0.33333  -0.33051  -0.32736  -0.32344  -0.31595
 Alpha  occ. eigenvalues --   -0.30047  -0.27753  -0.26679  -0.26233  -0.25718
 Alpha  occ. eigenvalues --   -0.25514  -0.25027  -0.24398  -0.24226  -0.23967
 Alpha  occ. eigenvalues --   -0.23443  -0.23311  -0.20821  -0.18258  -0.13165
 Alpha virt. eigenvalues --   -0.04174  -0.03438  -0.01174  -0.00356  -0.00043
 Alpha virt. eigenvalues --    0.00349   0.00539   0.01005   0.01221   0.01340
 Alpha virt. eigenvalues --    0.01722   0.02560   0.02692   0.03043   0.03167

 Mulliken charges:
               1
     1  C    0.423713
     2  C   -0.008951
     3  C    0.181081
     4  C    0.145630
     5  C    0.248269
     6  C   -0.622684
     7  C    0.198430
     8  C   -0.153956
     9  C    0.484570
    10  C   -0.379556
    11  C    0.188280
    12  C    0.167055
    13  C   -0.584566
    14  C   -0.653620
    15  H    0.121823
    16  H    0.122519
    17  H    0.116326
    18  N   -0.180043
    19  N   -0.162443
    20  O   -0.527356
    21  O   -0.516102
    22  O   -0.515290
    23  O   -0.372140
    24  C   -0.219563
    25  H    0.158884
    26  H    0.160126
    27  H    0.168342
    28  C   -0.199365
    29  H    0.158837
    30  H    0.159663
    31  H    0.167695
    32  C    0.068638
    33  C   -0.547742
    34  S   -0.106376
    35  C   -0.152596
    36  H    0.132914
    37  C    0.217283
    38  O   -0.176625
    39  C    0.749586
    40  C   -0.234713
    41  C    0.045940
    42  S   -0.254750
    43  H    0.172245
    44  H    0.162226
    45  H    0.159298
    46  C   -0.531098
    47  O   -0.180024
    48  C   -0.378065
    49  H    0.157074
    50  C   -0.246707
    51  H    0.183801
    52  H    0.156004
    53  H    0.171129
    54  H    0.156952
 Sum of Mulliken charges =  -2.00000

 Dipole moment (field-independent basis, Debye):
    X=             28.1099    Y=             -2.2954    Z=              0.8385  Tot=             28.2160
 Quadrupole moment (field-independent basis, Debye-Ang):
   XX=           -382.0141   YY=           -315.5931   ZZ=           -206.1724
   XY=             -2.9811   XZ=            -19.7711   YZ=             12.6671

 Normal termination of Gaussian 16 at Thu Oct 28 11:34:08 2021.
