 Gaussian 16, Revision C.01,
 Gaussian 16:  ES64L-G16RevC.01  3-Jul-2019

 ---------------------------------------------------------------
 # opt=modredundant b3lyp/6-311+g(d,p) scrf=(pcm, solvent=water)
 ---------------------------------------------------------------

 ------------
 NDI_-145.pdb
 ------------
 Symbolic Z-matrix:
 Charge = -2 Multiplicity = 1

 SCF Done:  E(RB3LYP) =  -2359.58716766     A.U. after   16 cycles
 SCF Done:  E(RB3LYP) =  -2359.60508741     A.U. after   17 cycles
 SCF Done:  E(RB3LYP) =  -2359.61709687     A.U. after   16 cycles
 SCF Done:  E(RB3LYP) =  -2359.62017214     A.U. after   15 cycles
 SCF Done:  E(RB3LYP) =  -2359.62119919     A.U. after   15 cycles
 SCF Done:  E(RB3LYP) =  -2359.62226491     A.U. after   16 cycles
 SCF Done:  E(RB3LYP) =  -2359.62340138     A.U. after   13 cycles
 SCF Done:  E(RB3LYP) =  -2359.62418622     A.U. after   15 cycles
 SCF Done:  E(RB3LYP) =  -2359.62453381     A.U. after   13 cycles
 SCF Done:  E(RB3LYP) =  -2359.62465777     A.U. after   12 cycles
 SCF Done:  E(RB3LYP) =  -2359.62490846     A.U. after   11 cycles
 SCF Done:  E(RB3LYP) =  -2359.62492131     A.U. after   11 cycles
 SCF Done:  E(RB3LYP) =  -2359.62492590     A.U. after   11 cycles
 SCF Done:  E(RB3LYP) =  -2359.62492894     A.U. after   10 cycles
 SCF Done:  E(RB3LYP) =  -2359.62493029     A.U. after   10 cycles
 SCF Done:  E(RB3LYP) =  -2359.62493073     A.U. after   10 cycles
 SCF Done:  E(RB3LYP) =  -2359.62493124     A.U. after    9 cycles
 SCF Done:  E(RB3LYP) =  -2359.62493135     A.U. after    9 cycles
 SCF Done:  E(RB3LYP) =  -2359.62493142     A.U. after    8 cycles
 SCF Done:  E(RB3LYP) =  -2359.62493140     A.U. after    8 cycles
 Optimization completed.
    -- Stationary point found.

                         Standard orientation:
 ---------------------------------------------------------------------
 Center     Atomic      Atomic             Coordinates (Angstroms)
 Number     Number       Type             X           Y           Z
 ---------------------------------------------------------------------
      1          6           0       -3.488275   -2.687860    0.341202
      2          6           0       -2.770874   -1.484499    0.036853
      3          6           0       -3.417318   -0.225832    0.136015
      4          6           0       -4.771727   -0.129445    0.535313
      5          6           0       -5.515889   -1.316353    0.857842
      6          6           0       -1.383327   -1.543355   -0.276923
      7          6           0       -2.674663    0.968972   -0.198294
      8          6           0       -1.312834    0.871282   -0.612062
      9          6           0       -0.643219   -0.423072   -0.572847
     10          6           0       -0.696559    2.031517   -1.193649
     11          6           0       -2.673894    3.421436   -0.533523
     12          6           0       -3.348973    2.216804   -0.144151
     13          6           0       -4.718696    2.281897    0.273347
     14          6           0       -5.406842    1.153075    0.605573
     15          1           0       -6.444014    1.198391    0.913472
     16          1           0       -5.192435    3.255266    0.305884
     17          1           0       -0.891205   -2.503557   -0.190842
     18          7           0       -1.375423    3.261175   -1.036932
     19          7           0       -4.830528   -2.540365    0.732060
     20          8           0       -3.003145   -3.843857    0.285405
     21          8           0       -6.713196   -1.311823    1.230901
     22          8           0       -3.183531    4.567382   -0.472093
     23          8           0        0.377576    2.041582   -1.837088
     24          6           0       -0.680424    4.449520   -1.536389
     25          1           0        0.356822    4.431172   -1.205581
     26          1           0       -0.688127    4.477259   -2.629598
     27          1           0       -1.192435    5.325523   -1.151054
     28          6           0       -5.552906   -3.776983    1.039282
     29          1           0       -5.504713   -4.458856    0.189465
     30          1           0       -5.104181   -4.276267    1.900686
     31          1           0       -6.583473   -3.517296    1.257979
     32          6           0        0.815498   -0.598049   -0.642831
     33          6           0        1.504994   -1.622817   -1.250031
     34         16           0        1.901859    0.363944    0.339875
     35          6           0        2.894539   -1.627372   -0.953170
     36          1           0        1.023117   -2.338318   -1.900522
     37          6           0        3.305264   -0.616888   -0.096218
     38          8           0        3.813855   -2.509730   -1.444089
     39          6           0        4.638724   -0.329660    0.374970
     40          6           0        3.356049   -3.525391   -2.340435
     41          6           0        5.053328    0.669184    1.247023
     42         16           0        6.042699   -1.279591   -0.116185
     43          1           0        4.236531   -4.106824   -2.607478
     44          1           0        2.622462   -4.175969   -1.855944
     45          1           0        2.920959   -3.086221   -3.242624
     46          6           0        6.454184    0.675265    1.512369
     47          8           0        4.136498    1.535603    1.769275
     48          6           0        7.113461   -0.318491    0.846697
     49          1           0        6.947968    1.380231    2.165464
     50          6           0        4.606059    2.539113    2.672610
     51          1           0        8.168008   -0.546899    0.865330
     52          1           0        5.325095    3.203229    2.184244
     53          1           0        3.727631    3.110020    2.967303
     54          1           0        5.062191    2.088556    3.558937
 ---------------------------------------------------------------------

 The electronic state is 1-A.
 Alpha  occ. eigenvalues --  -88.87588 -88.86406 -19.15866 -19.15830 -19.06882
 Alpha  occ. eigenvalues --  -19.06767 -19.06639 -19.06333 -14.34703 -14.34389
 Alpha  occ. eigenvalues --  -10.25317 -10.25065 -10.25012 -10.24914 -10.23478
 Alpha  occ. eigenvalues --  -10.23211 -10.22253 -10.22187 -10.20934 -10.20219
 Alpha  occ. eigenvalues --  -10.20128 -10.19758 -10.18587 -10.18461 -10.18153
 Alpha  occ. eigenvalues --  -10.17978 -10.17971 -10.17471 -10.16720 -10.15834
 Alpha  occ. eigenvalues --  -10.15829 -10.15583 -10.15433 -10.15413 -10.15369
 Alpha  occ. eigenvalues --  -10.15288  -7.96152  -7.94981  -5.92460  -5.92078
 Alpha  occ. eigenvalues --   -5.91721  -5.91303  -5.90921  -5.90515  -1.07165
 Alpha  occ. eigenvalues --   -1.07048  -1.02539  -1.02338  -1.00093  -0.99872
 Alpha  occ. eigenvalues --   -0.91232  -0.90935  -0.88839  -0.87312  -0.86122
 Alpha  occ. eigenvalues --   -0.81336  -0.79107  -0.77409  -0.75404  -0.74172
 Alpha  occ. eigenvalues --   -0.73712  -0.72736  -0.71642  -0.71198  -0.69146
 Alpha  occ. eigenvalues --   -0.68764  -0.67966  -0.66301  -0.62594  -0.61830
 Alpha  occ. eigenvalues --   -0.60984  -0.59883  -0.58889  -0.57255  -0.55030
 Alpha  occ. eigenvalues --   -0.54871  -0.53583  -0.53344  -0.52874  -0.50637
 Alpha  occ. eigenvalues --   -0.49630  -0.47950  -0.47365  -0.47105  -0.47047
 Alpha  occ. eigenvalues --   -0.46603  -0.46140  -0.45836  -0.45469  -0.44869
 Alpha  occ. eigenvalues --   -0.44466  -0.44332  -0.44152  -0.42811  -0.42232
 Alpha  occ. eigenvalues --   -0.41347  -0.41215  -0.40907  -0.40501  -0.40414
 Alpha  occ. eigenvalues --   -0.40223  -0.40015  -0.39229  -0.38361  -0.38263
 Alpha  occ. eigenvalues --   -0.37951  -0.37612  -0.37466  -0.36989  -0.36897
 Alpha  occ. eigenvalues --   -0.36314  -0.36218  -0.35098  -0.34951  -0.34482
 Alpha  occ. eigenvalues --   -0.33335  -0.32999  -0.32760  -0.32311  -0.31774
 Alpha  occ. eigenvalues --   -0.30154  -0.27824  -0.26745  -0.26442  -0.25821
 Alpha  occ. eigenvalues --   -0.25682  -0.25054  -0.24573  -0.24241  -0.23808
 Alpha  occ. eigenvalues --   -0.23759  -0.23051  -0.20921  -0.18083  -0.13233
 Alpha virt. eigenvalues --   -0.04773  -0.03382  -0.01341  -0.00509  -0.00061
 Alpha virt. eigenvalues --    0.00583   0.00919   0.00999   0.01216   0.01599
 Alpha virt. eigenvalues --    0.02052   0.02598   0.02774   0.03078   0.03256

 Mulliken charges:
               1
     1  C    0.327247
     2  C   -0.142757
     3  C    0.106847
     4  C    0.173966
     5  C    0.206850
     6  C   -0.249967
     7  C    0.183478
     8  C    0.048903
     9  C    0.274221
    10  C   -0.485519
    11  C    0.283266
    12  C    0.032809
    13  C   -0.512541
    14  C   -0.550965
    15  H    0.122988
    16  H    0.123328
    17  H    0.126115
    18  N   -0.057618
    19  N   -0.157778
    20  O   -0.525446
    21  O   -0.507444
    22  O   -0.517009
    23  O   -0.458599
    24  C   -0.183593
    25  H    0.163989
    26  H    0.163177
    27  H    0.167947
    28  C   -0.197414
    29  H    0.158999
    30  H    0.161846
    31  H    0.168277
    32  C    0.109084
    33  C   -0.620341
    34  S   -0.663791
    35  C   -0.104858
    36  H    0.146658
    37  C    0.564134
    38  O   -0.172924
    39  C    0.819892
    40  C   -0.234634
    41  C   -0.001271
    42  S   -0.239586
    43  H    0.172174
    44  H    0.160227
    45  H    0.159814
    46  C   -0.608983
    47  O   -0.167276
    48  C   -0.339308
    49  H    0.156681
    50  C   -0.250038
    51  H    0.183616
    52  H    0.156117
    53  H    0.171273
    54  H    0.155733
 Sum of Mulliken charges =  -2.00000

 Dipole moment (field-independent basis, Debye):
    X=             26.4003    Y=             -3.2967    Z=              1.6250  Tot=             26.6549
 Quadrupole moment (field-independent basis, Debye-Ang):
   XX=           -371.1920   YY=           -293.9926   ZZ=           -232.1199
   XY=             12.0013   XZ=             26.1332   YZ=             26.2562

 Normal termination of Gaussian 16 at Thu Oct 28 08:49:39 2021.
