 Gaussian 16, Revision C.01,
 Gaussian 16:  ES64L-G16RevC.01  3-Jul-2019

 ---------------------------------------------------------------
 # opt=modredundant b3lyp/6-311+g(d,p) scrf=(pcm, solvent=water)
 ---------------------------------------------------------------

 ----------
 NDI_70.pdb
 ----------
 Symbolic Z-matrix:
 Charge = -2 Multiplicity = 1

 SCF Done:  E(RB3LYP) =  -2359.60196249     A.U. after   16 cycles
 SCF Done:  E(RB3LYP) =  -2359.61995527     A.U. after   13 cycles
 SCF Done:  E(RB3LYP) =  -2359.62366594     A.U. after   15 cycles
 SCF Done:  E(RB3LYP) =  -2359.62428049     A.U. after   15 cycles
 SCF Done:  E(RB3LYP) =  -2359.62434832     A.U. after   15 cycles
 SCF Done:  E(RB3LYP) =  -2359.62463556     A.U. after   11 cycles
 SCF Done:  E(RB3LYP) =  -2359.62467617     A.U. after   11 cycles
 SCF Done:  E(RB3LYP) =  -2359.62469773     A.U. after   11 cycles
 SCF Done:  E(RB3LYP) =  -2359.62470674     A.U. after   10 cycles
 SCF Done:  E(RB3LYP) =  -2359.62471556     A.U. after   10 cycles
 SCF Done:  E(RB3LYP) =  -2359.62477333     A.U. after    9 cycles
 SCF Done:  E(RB3LYP) =  -2359.62477384     A.U. after   10 cycles
 SCF Done:  E(RB3LYP) =  -2359.62477394     A.U. after    9 cycles
 SCF Done:  E(RB3LYP) =  -2359.62477389     A.U. after    9 cycles
 SCF Done:  E(RB3LYP) =  -2359.62477397     A.U. after    8 cycles
 SCF Done:  E(RB3LYP) =  -2359.62477405     A.U. after    8 cycles
 SCF Done:  E(RB3LYP) =  -2359.62477421     A.U. after    8 cycles
 SCF Done:  E(RB3LYP) =  -2359.62477431     A.U. after    8 cycles
 SCF Done:  E(RB3LYP) =  -2359.62477444     A.U. after    8 cycles
 SCF Done:  E(RB3LYP) =  -2359.62477449     A.U. after    7 cycles
 Optimization completed.
    -- Stationary point found.

                         Standard orientation:
 ---------------------------------------------------------------------
 Center     Atomic      Atomic             Coordinates (Angstroms)
 Number     Number       Type             X           Y           Z
 ---------------------------------------------------------------------
      1          6           0       -3.002715   -2.871558    0.483008
      2          6           0       -2.510990   -1.541024    0.279629
      3          6           0       -3.415049   -0.475149    0.045410
      4          6           0       -4.814036   -0.699321    0.011387
      5          6           0       -5.339629   -2.018566    0.219419
      6          6           0       -1.111374   -1.277520    0.356786
      7          6           0       -2.890025    0.854954   -0.174836
      8          6           0       -1.481101    1.080690   -0.151235
      9          6           0       -0.590421   -0.021185    0.181347
     10          6           0       -0.985630    2.380645   -0.514966
     11          6           0       -3.336834    3.234946   -0.690697
     12          6           0       -3.808776    1.906249   -0.435485
     13          6           0       -5.219329    1.646471   -0.459337
     14          6           0       -5.706927    0.393075   -0.242532
     15          1           0       -6.771100    0.193526   -0.264174
     16          1           0       -5.884102    2.477582   -0.659914
     17          1           0       -0.456374   -2.099545    0.618081
     18          7           0       -1.943896    3.399878   -0.706847
     19          7           0       -4.397149   -3.040895    0.446715
     20          8           0       -2.280530   -3.877747    0.690482
     21          8           0       -6.563907   -2.296520    0.206182
     22          8           0       -4.084999    4.220955   -0.906788
     23          8           0        0.217398    2.682474   -0.685450
     24          6           0       -1.411417    4.730812   -1.006621
     25          1           0       -0.640636    4.990606   -0.281804
     26          1           0       -0.961647    4.753983   -2.002479
     27          1           0       -2.233538    5.437789   -0.962216
     28          6           0       -4.888517   -4.403509    0.662908
     29          1           0       -4.528539   -5.067223   -0.125818
     30          1           0       -4.526819   -4.785424    1.618586
     31          1           0       -5.973162   -4.373040    0.655259
     32          6           0        0.861123    0.150383    0.416198
     33          6           0        1.499605    0.759412    1.463742
     34         16           0        2.014945   -0.608971   -0.651641
     35          6           0        2.915998    0.638808    1.405715
     36          1           0        0.966423    1.283185    2.243849
     37          6           0        3.392679   -0.078739    0.317890
     38          8           0        3.799139    1.143297    2.316349
     39          6           0        4.761033   -0.388465   -0.022703
     40          6           0        3.274754    1.901003    3.410083
     41          6           0        5.238706   -1.103649   -1.112820
     42         16           0        6.127143    0.136573    0.962026
     43          1           0        4.136671    2.215894    3.995323
     44          1           0        2.733167    2.781717    3.053795
     45          1           0        2.615676    1.288775    4.032054
     46          6           0        6.658478   -1.227378   -1.159570
     47          8           0        4.359405   -1.615061   -2.023200
     48          6           0        7.268191   -0.607519   -0.106357
     49          1           0        7.199896   -1.748937   -1.935559
     50          6           0        4.894304   -2.338308   -3.134553
     51          1           0        8.323892   -0.542147    0.107724
     52          1           0        5.446725   -3.221250   -2.800280
     53          1           0        4.037041   -2.650113   -3.728061
     54          1           0        5.545663   -1.702418   -3.741086
 ---------------------------------------------------------------------

 The electronic state is 1-A.
 Alpha  occ. eigenvalues --  -88.87637 -88.86816 -19.15926 -19.15878 -19.06687
 Alpha  occ. eigenvalues --  -19.06645 -19.06531 -19.06238 -14.34614 -14.34365
 Alpha  occ. eigenvalues --  -10.25119 -10.24935 -10.24903 -10.24894 -10.23523
 Alpha  occ. eigenvalues --  -10.23330 -10.22283 -10.22210 -10.20974 -10.20211
 Alpha  occ. eigenvalues --  -10.20210 -10.19808 -10.18531 -10.18402 -10.18133
 Alpha  occ. eigenvalues --  -10.18016 -10.17943 -10.17486 -10.16727 -10.15974
 Alpha  occ. eigenvalues --  -10.15695 -10.15412 -10.15340 -10.15333 -10.15267
 Alpha  occ. eigenvalues --  -10.15198  -7.96201  -7.95385  -5.92509  -5.92126
 Alpha  occ. eigenvalues --   -5.91771  -5.91703  -5.91318  -5.90937  -1.07219
 Alpha  occ. eigenvalues --   -1.07102  -1.02376  -1.02266  -0.99900  -0.99776
 Alpha  occ. eigenvalues --   -0.91109  -0.90856  -0.88939  -0.87389  -0.86103
 Alpha  occ. eigenvalues --   -0.81256  -0.79041  -0.77403  -0.75490  -0.74248
 Alpha  occ. eigenvalues --   -0.73576  -0.72768  -0.71616  -0.71255  -0.69184
 Alpha  occ. eigenvalues --   -0.68749  -0.67938  -0.66284  -0.62572  -0.61746
 Alpha  occ. eigenvalues --   -0.60926  -0.59830  -0.58957  -0.57273  -0.55039
 Alpha  occ. eigenvalues --   -0.54913  -0.53487  -0.53400  -0.52845  -0.50629
 Alpha  occ. eigenvalues --   -0.49359  -0.48376  -0.47404  -0.47086  -0.47026
 Alpha  occ. eigenvalues --   -0.46643  -0.46056  -0.45764  -0.45444  -0.44814
 Alpha  occ. eigenvalues --   -0.44442  -0.44313  -0.44236  -0.42522  -0.42146
 Alpha  occ. eigenvalues --   -0.41722  -0.41102  -0.40880  -0.40498  -0.40369
 Alpha  occ. eigenvalues --   -0.40140  -0.39988  -0.39146  -0.38262  -0.38180
 Alpha  occ. eigenvalues --   -0.38042  -0.37733  -0.37307  -0.36939  -0.36827
 Alpha  occ. eigenvalues --   -0.36473  -0.36193  -0.35142  -0.34822  -0.34463
 Alpha  occ. eigenvalues --   -0.33321  -0.33018  -0.32779  -0.32386  -0.31659
 Alpha  occ. eigenvalues --   -0.30167  -0.27783  -0.26686  -0.26293  -0.25785
 Alpha  occ. eigenvalues --   -0.25540  -0.25001  -0.24573  -0.24142  -0.23954
 Alpha  occ. eigenvalues --   -0.23622  -0.23145  -0.20846  -0.18203  -0.13188
 Alpha virt. eigenvalues --   -0.04353  -0.03354  -0.01300  -0.00399  -0.00036
 Alpha virt. eigenvalues --    0.00550   0.00571   0.01015   0.01163   0.01445
 Alpha virt. eigenvalues --    0.01804   0.02572   0.02664   0.03062   0.03170

 Mulliken charges:
               1
     1  C    0.417730
     2  C   -0.136694
     3  C    0.119193
     4  C    0.148611
     5  C    0.232518
     6  C   -0.540896
     7  C    0.198871
     8  C    0.011534
     9  C    0.469440
    10  C   -0.399046
    11  C    0.211942
    12  C    0.108488
    13  C   -0.540909
    14  C   -0.633288
    15  H    0.121938
    16  H    0.122717
    17  H    0.124270
    18  N   -0.150388
    19  N   -0.161136
    20  O   -0.528090
    21  O   -0.513532
    22  O   -0.517419
    23  O   -0.382568
    24  C   -0.207286
    25  H    0.161141
    26  H    0.161677
    27  H    0.167708
    28  C   -0.199650
    29  H    0.159723
    30  H    0.159621
    31  H    0.167854
    32  C    0.074535
    33  C   -0.530309
    34  S   -0.323005
    35  C   -0.213982
    36  H    0.136304
    37  C    0.450762
    38  O   -0.175656
    39  C    0.725456
    40  C   -0.233002
    41  C    0.005152
    42  S   -0.249382
    43  H    0.171916
    44  H    0.161341
    45  H    0.158885
    46  C   -0.551902
    47  O   -0.172704
    48  C   -0.363624
    49  H    0.156975
    50  C   -0.249036
    51  H    0.183628
    52  H    0.155992
    53  H    0.170977
    54  H    0.156606
 Sum of Mulliken charges =  -2.00000

 Dipole moment (field-independent basis, Debye):
    X=             27.7916    Y=             -1.4287    Z=              1.5926  Tot=             27.8738
 Quadrupole moment (field-independent basis, Debye-Ang):
   XX=           -381.7567   YY=           -304.7012   ZZ=           -217.0699
   XY=             -7.9015   XZ=            -13.1672   YZ=             29.9059

 Normal termination of Gaussian 16 at Thu Oct 28 12:46:51 2021.
