 Gaussian 16, Revision C.01,
 Gaussian 16:  ES64L-G16RevC.01  3-Jul-2019

 ---------------------------------------------------------------
 # opt=modredundant b3lyp/6-311+g(d,p) scrf=(pcm, solvent=water)
 ---------------------------------------------------------------

 -----------
 NDI_180.pdb
 -----------
 Symbolic Z-matrix:
 Charge = -2 Multiplicity = 1

 SCF Done:  E(RB3LYP) =  -2359.55505405     A.U. after   16 cycles
 SCF Done:  E(RB3LYP) =  -2359.59338094     A.U. after   17 cycles
 SCF Done:  E(RB3LYP) =  -2359.60923008     A.U. after   15 cycles
 SCF Done:  E(RB3LYP) =  -2359.61345205     A.U. after   14 cycles
 SCF Done:  E(RB3LYP) =  -2359.61449062     A.U. after   13 cycles
 SCF Done:  E(RB3LYP) =  -2359.61551169     A.U. after   16 cycles
 SCF Done:  E(RB3LYP) =  -2359.61554115     A.U. after   16 cycles
 SCF Done:  E(RB3LYP) =  -2359.61688755     A.U. after   12 cycles
 SCF Done:  E(RB3LYP) =  -2359.61862750     A.U. after   16 cycles
 SCF Done:  E(RB3LYP) =  -2359.61907922     A.U. after   13 cycles
 SCF Done:  E(RB3LYP) =  -2359.61955583     A.U. after    9 cycles
 SCF Done:  E(RB3LYP) =  -2359.61955631     A.U. after    9 cycles
 SCF Done:  E(RB3LYP) =  -2359.61955645     A.U. after    9 cycles
 SCF Done:  E(RB3LYP) =  -2359.61955652     A.U. after    9 cycles
 SCF Done:  E(RB3LYP) =  -2359.61955662     A.U. after    9 cycles
 SCF Done:  E(RB3LYP) =  -2359.61955669     A.U. after    8 cycles
 SCF Done:  E(RB3LYP) =  -2359.61955675     A.U. after    8 cycles
 SCF Done:  E(RB3LYP) =  -2359.61955680     A.U. after    8 cycles
 SCF Done:  E(RB3LYP) =  -2359.61955685     A.U. after    8 cycles
 SCF Done:  E(RB3LYP) =  -2359.61955688     A.U. after    7 cycles
 Optimization completed.
    -- Stationary point found.

                         Standard orientation:
 ---------------------------------------------------------------------
 Center     Atomic      Atomic             Coordinates (Angstroms)
 Number     Number       Type             X           Y           Z
 ---------------------------------------------------------------------
      1          6           0       -3.654275   -2.600402    0.000813
      2          6           0       -2.863193   -1.414403    0.173077
      3          6           0       -3.420610   -0.140729   -0.107103
      4          6           0       -4.752566   -0.008567   -0.559258
      5          6           0       -5.570399   -1.178182   -0.748586
      6          6           0       -1.490812   -1.524979    0.511420
      7          6           0       -2.602150    1.029809    0.104771
      8          6           0       -1.262799    0.894928    0.578791
      9          6           0       -0.658904   -0.438056    0.691140
     10          6           0       -0.631950    2.071359    1.103844
     11          6           0       -2.455471    3.501427    0.163215
     12          6           0       -3.192206    2.302727   -0.119094
     13          6           0       -4.539343    2.404663   -0.593638
     14          6           0       -5.296324    1.291486   -0.811957
     15          1           0       -6.318599    1.366010   -1.160987
     16          1           0       -4.942675    3.396067   -0.759558
     17          1           0       -1.088137   -2.528088    0.526192
     18          7           0       -1.205473    3.318389    0.765043
     19          7           0       -4.972671   -2.418101   -0.451213
     20          8           0       -3.250959   -3.766783    0.219423
     21          8           0       -6.756475   -1.141499   -1.149055
     22          8           0       -2.877477    4.661988   -0.062127
     23          8           0        0.372366    2.080382    1.853738
     24          6           0       -0.471010    4.512198    1.189680
     25          1           0       -0.639210    4.721940    2.250274
     26          1           0        0.594334    4.352270    1.039009
     27          1           0       -0.824128    5.354162    0.601974
     28          6           0       -5.769786   -3.634806   -0.624624
     29          1           0       -5.304669   -4.289329   -1.363854
     30          1           0       -5.834807   -4.179569    0.318467
     31          1           0       -6.759952   -3.341898   -0.957578
     32          6           0        0.788177   -0.713792    0.698275
     33          6           0        1.392018   -1.960051    0.802861
     34         16           0        1.979316    0.456082    0.152804
     35          6           0        2.761920   -1.972627    0.463591
     36          1           0        0.859783   -2.844909    1.116849
     37          6           0        3.266613   -0.745296    0.050737
     38          8           0        3.591600   -3.057321    0.520827
     39          6           0        4.620456   -0.413302   -0.316481
     40          6           0        3.036039   -4.304724    0.941930
     41          6           0        5.127133    0.801596   -0.764190
     42         16           0        5.935854   -1.590196   -0.252592
     43          1           0        3.856195   -5.020057    0.920132
     44          1           0        2.638912   -4.235770    1.958830
     45          1           0        2.246713   -4.634202    0.259993
     46          6           0        6.524612    0.790748   -1.044316
     47          8           0        4.292097    1.873523   -0.903239
     48          6           0        7.092448   -0.430430   -0.815453
     49          1           0        7.081092    1.645384   -1.401198
     50          6           0        4.856687    3.101797   -1.366941
     51          1           0        8.122557   -0.722390   -0.950299
     52          1           0        5.287017    2.985642   -2.366039
     53          1           0        4.033441    3.812489   -1.407611
     54          1           0        5.621396    3.469380   -0.676364
 ---------------------------------------------------------------------

 The electronic state is 1-A.
 Alpha  occ. eigenvalues --  -88.87465 -88.86256 -19.15763 -19.15681 -19.07143
 Alpha  occ. eigenvalues --  -19.07000 -19.06678 -19.06384 -14.34845 -14.34417
 Alpha  occ. eigenvalues --  -10.25571 -10.25301 -10.25024 -10.24900 -10.23333
 Alpha  occ. eigenvalues --  -10.22963 -10.22198 -10.22119 -10.20837 -10.20319
 Alpha  occ. eigenvalues --  -10.19750 -10.19635 -10.18666 -10.18518 -10.18202
 Alpha  occ. eigenvalues --  -10.17957 -10.17895 -10.17789 -10.16486 -10.16004
 Alpha  occ. eigenvalues --  -10.15843 -10.15781 -10.15569 -10.15516 -10.15469
 Alpha  occ. eigenvalues --  -10.15356  -7.96030  -7.94800  -5.92338  -5.91957
 Alpha  occ. eigenvalues --   -5.91598  -5.91122  -5.90727  -5.90345  -1.07047
 Alpha  occ. eigenvalues --   -1.06899  -1.02797  -1.02407  -1.00391  -0.99938
 Alpha  occ. eigenvalues --   -0.91433  -0.91016  -0.88676  -0.87194  -0.86145
 Alpha  occ. eigenvalues --   -0.81377  -0.79190  -0.77322  -0.75297  -0.74134
 Alpha  occ. eigenvalues --   -0.73713  -0.72799  -0.71663  -0.71098  -0.69123
 Alpha  occ. eigenvalues --   -0.68773  -0.67999  -0.66255  -0.62693  -0.61925
 Alpha  occ. eigenvalues --   -0.61035  -0.60009  -0.58701  -0.57215  -0.54991
 Alpha  occ. eigenvalues --   -0.54779  -0.53774  -0.53234  -0.52926  -0.50736
 Alpha  occ. eigenvalues --   -0.49821  -0.47602  -0.47285  -0.47100  -0.46968
 Alpha  occ. eigenvalues --   -0.46466  -0.46273  -0.45938  -0.45494  -0.44957
 Alpha  occ. eigenvalues --   -0.44507  -0.44277  -0.44176  -0.42967  -0.42258
 Alpha  occ. eigenvalues --   -0.41316  -0.41037  -0.40912  -0.40624  -0.40341
 Alpha  occ. eigenvalues --   -0.40178  -0.40099  -0.39283  -0.38462  -0.38350
 Alpha  occ. eigenvalues --   -0.38051  -0.37558  -0.37497  -0.37197  -0.37074
 Alpha  occ. eigenvalues --   -0.36261  -0.35980  -0.35378  -0.34728  -0.34413
 Alpha  occ. eigenvalues --   -0.33476  -0.32929  -0.32727  -0.32062  -0.31615
 Alpha  occ. eigenvalues --   -0.30313  -0.27923  -0.26779  -0.26629  -0.25891
 Alpha  occ. eigenvalues --   -0.25827  -0.25097  -0.24594  -0.24481  -0.24041
 Alpha  occ. eigenvalues --   -0.23501  -0.22766  -0.21012  -0.17858  -0.13219
 Alpha virt. eigenvalues --   -0.05387  -0.03294  -0.01598  -0.00550  -0.00095
 Alpha virt. eigenvalues --    0.00638   0.00801   0.01111   0.01695   0.01970
 Alpha virt. eigenvalues --    0.02139   0.02720   0.02819   0.03146   0.03340

 Mulliken charges:
               1
     1  C    0.294981
     2  C   -0.160568
     3  C    0.089644
     4  C    0.212900
     5  C    0.155353
     6  C    0.098247
     7  C    0.074171
     8  C    0.288828
     9  C    0.226472
    10  C   -0.711484
    11  C    0.285750
    12  C    0.074484
    13  C   -0.508811
    14  C   -0.560842
    15  H    0.123740
    16  H    0.124779
    17  H    0.129186
    18  N    0.009000
    19  N   -0.157566
    20  O   -0.516377
    21  O   -0.496852
    22  O   -0.517450
    23  O   -0.445745
    24  C   -0.190917
    25  H    0.162722
    26  H    0.166576
    27  H    0.166595
    28  C   -0.194549
    29  H    0.161553
    30  H    0.159844
    31  H    0.167091
    32  C   -0.040116
    33  C   -0.308541
    34  S   -0.708270
    35  C   -0.566433
    36  H    0.137756
    37  C    0.563283
    38  O   -0.171174
    39  C    0.803351
    40  C   -0.236242
    41  C    0.007475
    42  S   -0.233957
    43  H    0.172263
    44  H    0.158574
    45  H    0.156733
    46  C   -0.514509
    47  O   -0.160460
    48  C   -0.341422
    49  H    0.155710
    50  C   -0.249900
    51  H    0.182828
    52  H    0.154539
    53  H    0.170971
    54  H    0.156785
 Sum of Mulliken charges =  -2.00000

 Dipole moment (field-independent basis, Debye):
    X=             24.9693    Y=             -4.1081    Z=             -1.9921  Tot=             25.3833
 Quadrupole moment (field-independent basis, Debye-Ang):
   XX=           -366.3952   YY=           -285.3461   ZZ=           -243.4209
   XY=             16.0154   XZ=            -24.6199   YZ=            -10.1996

 Normal termination of Gaussian 16 at Thu Oct 28 17:00:50 2021.
