 Gaussian 16, Revision C.01,
 Gaussian 16:  ES64L-G16RevC.01  3-Jul-2019

 ---------------------------------------------------------------
 # opt=modredundant b3lyp/6-311+g(d,p) scrf=(pcm, solvent=water)
 ---------------------------------------------------------------

 -----------
 NDI_-60.pdb
 -----------
 Symbolic Z-matrix:
 Charge = -2 Multiplicity = 1

 SCF Done:  E(RB3LYP) =  -2359.60601748     A.U. after   16 cycles
 SCF Done:  E(RB3LYP) =  -2359.62222968     A.U. after   14 cycles
 SCF Done:  E(RB3LYP) =  -2359.62461143     A.U. after   14 cycles
 SCF Done:  E(RB3LYP) =  -2359.62475992     A.U. after   12 cycles
 SCF Done:  E(RB3LYP) =  -2359.62498632     A.U. after   12 cycles
 SCF Done:  E(RB3LYP) =  -2359.62505613     A.U. after   11 cycles
 SCF Done:  E(RB3LYP) =  -2359.62506329     A.U. after   11 cycles
 SCF Done:  E(RB3LYP) =  -2359.62507211     A.U. after   10 cycles
 SCF Done:  E(RB3LYP) =  -2359.62507579     A.U. after   10 cycles
 SCF Done:  E(RB3LYP) =  -2359.62507854     A.U. after   10 cycles
 SCF Done:  E(RB3LYP) =  -2359.62509820     A.U. after   10 cycles
 SCF Done:  E(RB3LYP) =  -2359.62510139     A.U. after   10 cycles
 SCF Done:  E(RB3LYP) =  -2359.62510535     A.U. after   11 cycles
 SCF Done:  E(RB3LYP) =  -2359.62510641     A.U. after    9 cycles
 SCF Done:  E(RB3LYP) =  -2359.62510708     A.U. after    9 cycles
 SCF Done:  E(RB3LYP) =  -2359.62510729     A.U. after    9 cycles
 SCF Done:  E(RB3LYP) =  -2359.62510749     A.U. after    9 cycles
 SCF Done:  E(RB3LYP) =  -2359.62510749     A.U. after    9 cycles
 SCF Done:  E(RB3LYP) =  -2359.62510746     A.U. after    8 cycles
 SCF Done:  E(RB3LYP) =  -2359.62510742     A.U. after    8 cycles
 Optimization completed.
    -- Stationary point found.

                         Standard orientation:
 ---------------------------------------------------------------------
 Center     Atomic      Atomic             Coordinates (Angstroms)
 Number     Number       Type             X           Y           Z
 ---------------------------------------------------------------------
      1          6           0        2.904679   -2.899639    0.492523
      2          6           0        2.456028   -1.557911    0.262845
      3          6           0        3.396128   -0.515963    0.063759
      4          6           0        4.788401   -0.776376    0.085595
      5          6           0        5.271254   -2.108227    0.320333
      6          6           0        1.063410   -1.257563    0.292524
      7          6           0        2.914217    0.826117   -0.180535
      8          6           0        1.511349    1.088319   -0.213826
      9          6           0        0.579978    0.012594    0.097794
     10          6           0        1.066967    2.390318   -0.633329
     11          6           0        3.443398    3.188746   -0.697720
     12          6           0        3.870015    1.850425   -0.412422
     13          6           0        5.272770    1.554399   -0.380759
     14          6           0        5.719048    0.290187   -0.138306
     15          1           0        6.777413    0.062237   -0.117477
     16          1           0        5.965698    2.367006   -0.560446
     17          1           0        0.381886   -2.059497    0.547517
     18          7           0        2.057993    3.387257   -0.778885
     19          7           0        4.294802   -3.104688    0.515346
     20          8           0        2.148780   -3.885237    0.675132
     21          8           0        6.487304   -2.416562    0.356673
     22          8           0        4.225304    4.153372   -0.888320
     23          8           0       -0.114658    2.713397   -0.890779
     24          6           0        1.574599    4.727646   -1.116933
     25          1           0        1.214283    4.764250   -2.148432
     26          1           0        0.747583    4.994504   -0.460479
     27          1           0        2.400124    5.421987   -0.997355
     28          6           0        4.742119   -4.477657    0.760301
     29          1           0        4.322671   -4.846989    1.697048
     30          1           0        4.407785   -5.136272   -0.043949
     31          1           0        5.826149   -4.472975    0.808224
     32          6           0       -0.863721    0.229244    0.317581
     33          6           0       -1.492213    1.001893    1.259672
     34         16           0       -2.031971   -0.679845   -0.610882
     35          6           0       -2.907549    0.875312    1.237803
     36          1           0       -0.950843    1.641594    1.941027
     37          6           0       -3.397913   -0.004643    0.282527
     38          8           0       -3.780356    1.519201    2.067022
     39          6           0       -4.769719   -0.360089    0.009549
     40          6           0       -3.245237    2.451674    3.010062
     41          6           0       -5.259588   -1.248988   -0.938433
     42         16           0       -6.126170    0.335575    0.897561
     43          1           0       -4.101057    2.860566    3.543904
     44          1           0       -2.577092    1.954437    3.718872
     45          1           0       -2.710330    3.259569    2.503029
     46          6           0       -6.680186   -1.369558   -0.954390
     47          8           0       -4.389576   -1.914077   -1.753778
     48          6           0       -7.279164   -0.573739   -0.019888
     49          1           0       -7.230045   -2.013697   -1.625302
     50          6           0       -4.934956   -2.830056   -2.706331
     51          1           0       -8.332856   -0.466265    0.186924
     52          1           0       -5.592022   -2.316899   -3.414464
     53          1           0       -4.083428   -3.248283   -3.239609
     54          1           0       -5.484307   -3.634486   -2.208693
 ---------------------------------------------------------------------

 The electronic state is 1-A.
 Alpha  occ. eigenvalues --  -88.87611 -88.86798 -19.15904 -19.15849 -19.06750
 Alpha  occ. eigenvalues --  -19.06685 -19.06554 -19.06239 -14.34645 -14.34358
 Alpha  occ. eigenvalues --  -10.25182 -10.24978 -10.24920 -10.24906 -10.23487
 Alpha  occ. eigenvalues --  -10.23302 -10.22272 -10.22191 -10.20960 -10.20165
 Alpha  occ. eigenvalues --  -10.20152 -10.19777 -10.18550 -10.18413 -10.18149
 Alpha  occ. eigenvalues --  -10.17999 -10.17949 -10.17529 -10.16647 -10.15960
 Alpha  occ. eigenvalues --  -10.15737 -10.15462 -10.15359 -10.15357 -10.15291
 Alpha  occ. eigenvalues --  -10.15219  -7.96175  -7.95367  -5.92483  -5.92101
 Alpha  occ. eigenvalues --   -5.91744  -5.91684  -5.91301  -5.90918  -1.07195
 Alpha  occ. eigenvalues --   -1.07074  -1.02429  -1.02277  -0.99964  -0.99792
 Alpha  occ. eigenvalues --   -0.91152  -0.90862  -0.88912  -0.87375  -0.86111
 Alpha  occ. eigenvalues --   -0.81283  -0.79062  -0.77386  -0.75484  -0.74255
 Alpha  occ. eigenvalues --   -0.73540  -0.72810  -0.71603  -0.71254  -0.69170
 Alpha  occ. eigenvalues --   -0.68766  -0.67942  -0.66259  -0.62606  -0.61757
 Alpha  occ. eigenvalues --   -0.60948  -0.59871  -0.58911  -0.57260  -0.55028
 Alpha  occ. eigenvalues --   -0.54895  -0.53496  -0.53374  -0.52858  -0.50665
 Alpha  occ. eigenvalues --   -0.49410  -0.48300  -0.47387  -0.47069  -0.46992
 Alpha  occ. eigenvalues --   -0.46654  -0.46075  -0.45769  -0.45450  -0.44835
 Alpha  occ. eigenvalues --   -0.44439  -0.44291  -0.44239  -0.42541  -0.42084
 Alpha  occ. eigenvalues --   -0.41734  -0.41116  -0.40860  -0.40462  -0.40400
 Alpha  occ. eigenvalues --   -0.40175  -0.39991  -0.39124  -0.38287  -0.38197
 Alpha  occ. eigenvalues --   -0.38105  -0.37700  -0.37317  -0.36973  -0.36850
 Alpha  occ. eigenvalues --   -0.36461  -0.36176  -0.35116  -0.34878  -0.34460
 Alpha  occ. eigenvalues --   -0.33333  -0.32993  -0.32767  -0.32403  -0.31697
 Alpha  occ. eigenvalues --   -0.30231  -0.27810  -0.26692  -0.26332  -0.25815
 Alpha  occ. eigenvalues --   -0.25563  -0.24992  -0.24634  -0.24156  -0.23899
 Alpha  occ. eigenvalues --   -0.23710  -0.23022  -0.20872  -0.18146  -0.13197
 Alpha virt. eigenvalues --   -0.04506  -0.03330  -0.01341  -0.00422  -0.00034
 Alpha virt. eigenvalues --    0.00580   0.00731   0.00978   0.01203   0.01520
 Alpha virt. eigenvalues --    0.01872   0.02610   0.02639   0.03073   0.03173

 Mulliken charges:
               1
     1  C    0.395018
     2  C   -0.189454
     3  C    0.087658
     4  C    0.155996
     5  C    0.224468
     6  C   -0.532388
     7  C    0.211478
     8  C    0.059368
     9  C    0.460679
    10  C   -0.397470
    11  C    0.210099
    12  C    0.093081
    13  C   -0.518425
    14  C   -0.618346
    15  H    0.122245
    16  H    0.122830
    17  H    0.130425
    18  N   -0.133494
    19  N   -0.159737
    20  O   -0.527807
    21  O   -0.510898
    22  O   -0.516854
    23  O   -0.392978
    24  C   -0.200036
    25  H    0.161745
    26  H    0.161285
    27  H    0.167098
    28  C   -0.199539
    29  H    0.159717
    30  H    0.160020
    31  H    0.167916
    32  C    0.044528
    33  C   -0.449397
    34  S   -0.434644
    35  C   -0.230189
    36  H    0.137960
    37  C    0.558716
    38  O   -0.174327
    39  C    0.715771
    40  C   -0.232901
    41  C   -0.014214
    42  S   -0.247384
    43  H    0.171714
    44  H    0.158449
    45  H    0.160853
    46  C   -0.570240
    47  O   -0.170910
    48  C   -0.350967
    49  H    0.156903
    50  C   -0.250130
    51  H    0.183495
    52  H    0.156420
    53  H    0.170869
    54  H    0.155926
 Sum of Mulliken charges =  -2.00000

 Dipole moment (field-independent basis, Debye):
    X=            -27.5144    Y=             -1.1390    Z=              1.7358  Tot=             27.5926
 Quadrupole moment (field-independent basis, Debye-Ang):
   XX=           -381.1452   YY=           -299.1378   ZZ=           -222.9461
   XY=              9.2523   XZ=              9.7553   YZ=             31.7631

 Normal termination of Gaussian 16 at Thu Oct 28 13:24:04 2021.
