 Gaussian 16, Revision C.01,
 Gaussian 16:  ES64L-G16RevC.01  3-Jul-2019

 ---------------------------------------------------------------
 # opt=modredundant b3lyp/6-311+g(d,p) scrf=(pcm, solvent=water)
 ---------------------------------------------------------------

 -----------
 NDI_-35.pdb
 -----------
 Symbolic Z-matrix:
 Charge = -2 Multiplicity = 1

 SCF Done:  E(RB3LYP) =  -2359.60529098     A.U. after   17 cycles
 SCF Done:  E(RB3LYP) =  -2359.62080079     A.U. after   14 cycles
 SCF Done:  E(RB3LYP) =  -2359.62226390     A.U. after   17 cycles
 SCF Done:  E(RB3LYP) =  -2359.62394708     A.U. after   15 cycles
 SCF Done:  E(RB3LYP) =  -2359.62470290     A.U. after   14 cycles
 SCF Done:  E(RB3LYP) =  -2359.62490769     A.U. after   12 cycles
 SCF Done:  E(RB3LYP) =  -2359.62503146     A.U. after   12 cycles
 SCF Done:  E(RB3LYP) =  -2359.62505373     A.U. after   12 cycles
 SCF Done:  E(RB3LYP) =  -2359.62507025     A.U. after   10 cycles
 SCF Done:  E(RB3LYP) =  -2359.62508384     A.U. after   12 cycles
 SCF Done:  E(RB3LYP) =  -2359.62511479     A.U. after   10 cycles
 SCF Done:  E(RB3LYP) =  -2359.62511624     A.U. after   10 cycles
 SCF Done:  E(RB3LYP) =  -2359.62511697     A.U. after   10 cycles
 SCF Done:  E(RB3LYP) =  -2359.62511760     A.U. after   10 cycles
 SCF Done:  E(RB3LYP) =  -2359.62511763     A.U. after    9 cycles
 SCF Done:  E(RB3LYP) =  -2359.62511838     A.U. after    9 cycles
 SCF Done:  E(RB3LYP) =  -2359.62511873     A.U. after    9 cycles
 SCF Done:  E(RB3LYP) =  -2359.62511902     A.U. after   10 cycles
 SCF Done:  E(RB3LYP) =  -2359.62511912     A.U. after   10 cycles
 SCF Done:  E(RB3LYP) =  -2359.62511914     A.U. after    9 cycles
 Optimization completed.
    -- Stationary point found.

                         Standard orientation:
 ---------------------------------------------------------------------
 Center     Atomic      Atomic             Coordinates (Angstroms)
 Number     Number       Type             X           Y           Z
 ---------------------------------------------------------------------
      1          6           0        2.763193   -2.973850    0.308599
      2          6           0        2.378469   -1.605742    0.117338
      3          6           0        3.363323   -0.585853    0.081984
      4          6           0        4.736106   -0.892815    0.233922
      5          6           0        5.155064   -2.254299    0.432174
      6          6           0        1.001349   -1.258511    0.058732
      7          6           0        2.943668    0.781779   -0.130308
      8          6           0        1.559698    1.090557   -0.298956
      9          6           0        0.564954    0.035703   -0.114037
     10          6           0        1.214370    2.401765   -0.777689
     11          6           0        3.590791    3.144405   -0.486362
     12          6           0        3.947335    1.782718   -0.210171
     13          6           0        5.328759    1.441670   -0.041321
     14          6           0        5.713667    0.152551    0.177362
     15          1           0        6.757299   -0.109033    0.299347
     16          1           0        6.058031    2.240016   -0.102079
     17          1           0        0.285981   -2.048852    0.248239
     18          7           0        2.235657    3.381541   -0.746152
     19          7           0        4.138593   -3.228802    0.447174
     20          8           0        1.964469   -3.939680    0.362363
     21          8           0        6.349953   -2.602317    0.583596
     22          8           0        4.411341    4.093872   -0.531617
     23          8           0        0.100585    2.747074   -1.232452
     24          6           0        1.842255    4.741422   -1.121268
     25          1           0        1.741320    4.837079   -2.206392
     26          1           0        0.881322    4.977498   -0.668848
     27          1           0        2.612340    5.423738   -0.774694
     28          6           0        4.520583   -4.630366    0.635158
     29          1           0        4.115833   -5.013346    1.574416
     30          1           0        4.122991   -5.238189   -0.178274
     31          1           0        5.604117   -4.683874    0.651492
     32          6           0       -0.862255    0.302366    0.099940
     33          6           0       -1.469492    1.331213    0.779668
     34         16           0       -2.069419   -0.813491   -0.516695
     35          6           0       -2.881661    1.211249    0.843637
     36          1           0       -0.912302    2.141283    1.223163
     37          6           0       -3.403915    0.099961    0.195462
     38          8           0       -3.727877    2.074250    1.479095
     39          6           0       -4.781968   -0.308472    0.082827
     40          6           0       -3.157036    3.199481    2.152114
     41          6           0       -5.308685   -1.404663   -0.589378
     42         16           0       -6.101679    0.587415    0.838267
     43          1           0       -3.994243    3.745976    2.582360
     44          1           0       -2.481506    2.878471    2.950080
     45          1           0       -2.620258    3.845561    1.451984
     46          6           0       -6.726297   -1.524885   -0.500519
     47          8           0       -4.473681   -2.250757   -1.261592
     48          6           0       -7.287943   -0.521994    0.237391
     49          1           0       -7.301200   -2.314474   -0.962481
     50          6           0       -5.055634   -3.378458   -1.919578
     51          1           0       -8.331538   -0.364349    0.462324
     52          1           0       -5.757932   -3.061976   -2.696284
     53          1           0       -4.228025   -3.917061   -2.377217
     54          1           0       -5.564935   -4.031528   -1.204922
 ---------------------------------------------------------------------

 The electronic state is 1-A.
 Alpha  occ. eigenvalues --  -88.87564 -88.86622 -19.15864 -19.15798 -19.06945
 Alpha  occ. eigenvalues --  -19.06813 -19.06614 -19.06243 -14.34740 -14.34354
 Alpha  occ. eigenvalues --  -10.25379 -10.25111 -10.24964 -10.24907 -10.23436
 Alpha  occ. eigenvalues --  -10.23221 -10.22254 -10.22154 -10.20938 -10.20093
 Alpha  occ. eigenvalues --  -10.20057 -10.19723 -10.18610 -10.18454 -10.18183
 Alpha  occ. eigenvalues --  -10.17969 -10.17966 -10.17603 -10.16480 -10.15890
 Alpha  occ. eigenvalues --  -10.15879 -10.15625 -10.15431 -10.15430 -10.15370
 Alpha  occ. eigenvalues --  -10.15286  -7.96129  -7.95195  -5.92437  -5.92055
 Alpha  occ. eigenvalues --   -5.91697  -5.91516  -5.91136  -5.90733  -1.07150
 Alpha  occ. eigenvalues --   -1.07023  -1.02599  -1.02309  -1.00162  -0.99836
 Alpha  occ. eigenvalues --   -0.91283  -0.90892  -0.88832  -0.87307  -0.86127
 Alpha  occ. eigenvalues --   -0.81343  -0.79123  -0.77353  -0.75468  -0.74272
 Alpha  occ. eigenvalues --   -0.73457  -0.72908  -0.71593  -0.71235  -0.69138
 Alpha  occ. eigenvalues --   -0.68817  -0.67956  -0.66215  -0.62696  -0.61801
 Alpha  occ. eigenvalues --   -0.61014  -0.59967  -0.58810  -0.57246  -0.55001
 Alpha  occ. eigenvalues --   -0.54853  -0.53568  -0.53300  -0.52898  -0.50752
 Alpha  occ. eigenvalues --   -0.49546  -0.48119  -0.47356  -0.47030  -0.46922
 Alpha  occ. eigenvalues --   -0.46681  -0.46143  -0.45786  -0.45478  -0.44910
 Alpha  occ. eigenvalues --   -0.44456  -0.44292  -0.44175  -0.42621  -0.41949
 Alpha  occ. eigenvalues --   -0.41752  -0.41103  -0.40830  -0.40508  -0.40438
 Alpha  occ. eigenvalues --   -0.40238  -0.40010  -0.39081  -0.38394  -0.38262
 Alpha  occ. eigenvalues --   -0.38194  -0.37693  -0.37416  -0.37014  -0.36903
 Alpha  occ. eigenvalues --   -0.36393  -0.36113  -0.35072  -0.34969  -0.34474
 Alpha  occ. eigenvalues --   -0.33370  -0.32940  -0.32744  -0.32607  -0.31653
 Alpha  occ. eigenvalues --   -0.30330  -0.27905  -0.26717  -0.26453  -0.25830
 Alpha  occ. eigenvalues --   -0.25702  -0.24991  -0.24695  -0.24287  -0.23873
 Alpha  occ. eigenvalues --   -0.23714  -0.22863  -0.20924  -0.18019  -0.13234
 Alpha virt. eigenvalues --   -0.04935  -0.03354  -0.01402  -0.00471  -0.00041
 Alpha virt. eigenvalues --    0.00615   0.00868   0.00989   0.01544   0.01646
 Alpha virt. eigenvalues --    0.02026   0.02571   0.02760   0.03122   0.03204

 Mulliken charges:
               1
     1  C    0.309192
     2  C   -0.205883
     3  C    0.086560
     4  C    0.181389
     5  C    0.210355
     6  C   -0.336098
     7  C    0.218054
     8  C    0.305198
     9  C    0.346048
    10  C   -0.572356
    11  C    0.238056
    12  C    0.065833
    13  C   -0.505433
    14  C   -0.593585
    15  H    0.123343
    16  H    0.123797
    17  H    0.134919
    18  N   -0.074434
    19  N   -0.154730
    20  O   -0.526516
    21  O   -0.504525
    22  O   -0.516988
    23  O   -0.425565
    24  C   -0.188032
    25  H    0.162435
    26  H    0.162604
    27  H    0.166273
    28  C   -0.201355
    29  H    0.162065
    30  H    0.159140
    31  H    0.167838
    32  C    0.035329
    33  C   -0.495053
    34  S   -0.597638
    35  C   -0.368824
    36  H    0.147604
    37  C    0.636690
    38  O   -0.168967
    39  C    0.785645
    40  C   -0.235407
    41  C    0.022865
    42  S   -0.233669
    43  H    0.172188
    44  H    0.159227
    45  H    0.159107
    46  C   -0.599232
    47  O   -0.168358
    48  C   -0.341409
    49  H    0.156741
    50  C   -0.250441
    51  H    0.183419
    52  H    0.155148
    53  H    0.170893
    54  H    0.156544
 Sum of Mulliken charges =  -2.00000

 Dipole moment (field-independent basis, Debye):
    X=            -26.8279    Y=             -0.7831    Z=              1.8176  Tot=             26.9008
 Quadrupole moment (field-independent basis, Debye-Ang):
   XX=           -377.7794   YY=           -291.7556   ZZ=           -231.7523
   XY=             10.2845   XZ=              0.2667   YZ=             26.6519

 Normal termination of Gaussian 16 at Thu Oct 28 13:34:02 2021.
