 Gaussian 16, Revision C.01,
 Gaussian 16:  ES64L-G16RevC.01  3-Jul-2019

 ---------------------------------------------------------------
 # opt=modredundant b3lyp/6-311+g(d,p) scrf=(pcm, solvent=water)
 ---------------------------------------------------------------

 ------------
 NDI_-105.pdb
 ------------
 Symbolic Z-matrix:
 Charge = -2 Multiplicity = 1

 SCF Done:  E(RB3LYP) =  -2359.60234770     A.U. after   17 cycles
 SCF Done:  E(RB3LYP) =  -2359.62103547     A.U. after   15 cycles
 SCF Done:  E(RB3LYP) =  -2359.62418910     A.U. after   15 cycles
 SCF Done:  E(RB3LYP) =  -2359.62429904     A.U. after   13 cycles
 SCF Done:  E(RB3LYP) =  -2359.62447730     A.U. after   13 cycles
 SCF Done:  E(RB3LYP) =  -2359.62454428     A.U. after   12 cycles
 SCF Done:  E(RB3LYP) =  -2359.62455714     A.U. after   12 cycles
 SCF Done:  E(RB3LYP) =  -2359.62456412     A.U. after   10 cycles
 SCF Done:  E(RB3LYP) =  -2359.62456829     A.U. after   10 cycles
 SCF Done:  E(RB3LYP) =  -2359.62457227     A.U. after   11 cycles
 SCF Done:  E(RB3LYP) =  -2359.62457830     A.U. after    9 cycles
 SCF Done:  E(RB3LYP) =  -2359.62457899     A.U. after    9 cycles
 SCF Done:  E(RB3LYP) =  -2359.62457960     A.U. after    9 cycles
 SCF Done:  E(RB3LYP) =  -2359.62457979     A.U. after    8 cycles
 SCF Done:  E(RB3LYP) =  -2359.62457998     A.U. after    8 cycles
 SCF Done:  E(RB3LYP) =  -2359.62457985     A.U. after    8 cycles
 SCF Done:  E(RB3LYP) =  -2359.62457976     A.U. after    8 cycles
 SCF Done:  E(RB3LYP) =  -2359.62457971     A.U. after    8 cycles
 SCF Done:  E(RB3LYP) =  -2359.62457978     A.U. after    9 cycles
 SCF Done:  E(RB3LYP) =  -2359.62457955     A.U. after    9 cycles
 Optimization completed.
    -- Stationary point found.

                         Standard orientation:
 ---------------------------------------------------------------------
 Center     Atomic      Atomic             Coordinates (Angstroms)
 Number     Number       Type             X           Y           Z
 ---------------------------------------------------------------------
      1          6           0        3.330950   -2.790169   -0.094961
      2          6           0        2.692364   -1.514478    0.036104
      3          6           0        3.447079   -0.322802   -0.092313
      4          6           0        4.840339   -0.366122   -0.352191
      5          6           0        5.509602   -1.627173   -0.494950
      6          6           0        1.287733   -1.440274    0.275666
      7          6           0        2.777221    0.951289    0.055145
      8          6           0        1.375604    0.997844    0.320582
      9          6           0        0.626859   -0.247105    0.406646
     10          6           0        0.755498    2.276801    0.537530
     11          6           0        2.943015    3.421706    0.099311
     12          6           0        3.553147    2.135496   -0.058197
     13          6           0        4.961102    2.057358   -0.322872
     14          6           0        5.583881    0.854594   -0.465921
     15          1           0        6.647007    0.794015   -0.662613
     16          1           0        5.512377    2.986244   -0.401743
     17          1           0        0.734172   -2.369481    0.328699
     18          7           0        1.569797    3.419798    0.387279
     19          7           0        4.710993   -2.780264   -0.358036
     20          8           0        2.746134   -3.897144    0.006595
     21          8           0        6.737858   -1.748613   -0.727749
     22          8           0        3.560648    4.511669    0.002380
     23          8           0       -0.442520    2.461792    0.851325
     24          6           0        0.902483    4.708946    0.582525
     25          1           0        0.052509    4.797890   -0.095203
     26          1           0        0.529284    4.795445    1.605050
     27          1           0        1.626848    5.492311    0.384290
     28          6           0        5.351208   -4.090274   -0.494257
     29          1           0        5.249527   -4.659793    0.431539
     30          1           0        4.877096   -4.659490   -1.295386
     31          1           0        6.400446   -3.928518   -0.718498
     32          6           0       -0.841110   -0.317460    0.604654
     33          6           0       -1.529268   -0.648010    1.740059
     34         16           0       -1.936533   -0.104262   -0.740574
     35          6           0       -2.941380   -0.696965    1.550133
     36          1           0       -1.036574   -0.826666    2.684989
     37          6           0       -3.358610   -0.422451    0.257623
     38          8           0       -3.867141   -0.988062    2.510239
     39          6           0       -4.706646   -0.390369   -0.260758
     40          6           0       -3.403132   -1.207001    3.845306
     41          6           0       -5.125785   -0.160678   -1.564245
     42         16           0       -6.121668   -0.642109    0.761689
     43          1           0       -4.292548   -1.399575    4.442319
     44          1           0       -2.737665   -2.073499    3.893387
     45          1           0       -2.887695   -0.323291    4.231799
     46          6           0       -6.540939   -0.183018   -1.739680
     47          8           0       -4.201021    0.058846   -2.543599
     48          6           0       -7.204336   -0.430307   -0.571900
     49          1           0       -7.041387   -0.025226   -2.684096
     50          6           0       -4.676822    0.299742   -3.870291
     51          1           0       -8.269316   -0.505902   -0.414561
     52          1           0       -5.301930    1.196534   -3.907404
     53          1           0       -3.789670    0.450515   -4.482328
     54          1           0       -5.238816   -0.558953   -4.248811
 ---------------------------------------------------------------------

 The electronic state is 1-A.
 Alpha  occ. eigenvalues --  -88.87668 -88.86612 -19.15942 -19.15895 -19.06627
 Alpha  occ. eigenvalues --  -19.06597 -19.06495 -19.06196 -14.34582 -14.34362
 Alpha  occ. eigenvalues --  -10.25062 -10.24881 -10.24870 -10.24864 -10.23582
 Alpha  occ. eigenvalues --  -10.23317 -10.22291 -10.22225 -10.20985 -10.20279
 Alpha  occ. eigenvalues --  -10.20253 -10.19853 -10.18514 -10.18379 -10.18118
 Alpha  occ. eigenvalues --  -10.18038 -10.17923 -10.17408 -10.16855 -10.16001
 Alpha  occ. eigenvalues --  -10.15603 -10.15363 -10.15289 -10.15286 -10.15230
 Alpha  occ. eigenvalues --  -10.15164  -7.96232  -7.95190  -5.92540  -5.92157
 Alpha  occ. eigenvalues --   -5.91803  -5.91509  -5.91125  -5.90733  -1.07242
 Alpha  occ. eigenvalues --   -1.07113  -1.02317  -1.02242  -0.99831  -0.99751
 Alpha  occ. eigenvalues --   -0.91065  -0.90837  -0.88938  -0.87358  -0.86072
 Alpha  occ. eigenvalues --   -0.81217  -0.79010  -0.77422  -0.75469  -0.74207
 Alpha  occ. eigenvalues --   -0.73643  -0.72672  -0.71634  -0.71225  -0.69174
 Alpha  occ. eigenvalues --   -0.68717  -0.67929  -0.66308  -0.62505  -0.61739
 Alpha  occ. eigenvalues --   -0.60901  -0.59743  -0.59017  -0.57279  -0.55045
 Alpha  occ. eigenvalues --   -0.54916  -0.53487  -0.53403  -0.52814  -0.50535
 Alpha  occ. eigenvalues --   -0.49363  -0.48346  -0.47417  -0.47102  -0.47080
 Alpha  occ. eigenvalues --   -0.46611  -0.46032  -0.45755  -0.45429  -0.44778
 Alpha  occ. eigenvalues --   -0.44446  -0.44342  -0.44179  -0.42599  -0.42197
 Alpha  occ. eigenvalues --   -0.41601  -0.41079  -0.40904  -0.40529  -0.40321
 Alpha  occ. eigenvalues --   -0.40086  -0.39982  -0.39190  -0.38211  -0.38184
 Alpha  occ. eigenvalues --   -0.37869  -0.37717  -0.37347  -0.36922  -0.36732
 Alpha  occ. eigenvalues --   -0.36439  -0.36210  -0.35132  -0.34696  -0.34522
 Alpha  occ. eigenvalues --   -0.33343  -0.33059  -0.32715  -0.32338  -0.31597
 Alpha  occ. eigenvalues --   -0.30018  -0.27755  -0.26681  -0.26240  -0.25731
 Alpha  occ. eigenvalues --   -0.25511  -0.25032  -0.24370  -0.24199  -0.23977
 Alpha  occ. eigenvalues --   -0.23458  -0.23316  -0.20822  -0.18257  -0.13167
 Alpha virt. eigenvalues --   -0.04222  -0.03450  -0.01136  -0.00371  -0.00054
 Alpha virt. eigenvalues --    0.00386   0.00550   0.00987   0.01196   0.01381
 Alpha virt. eigenvalues --    0.01723   0.02557   0.02704   0.03057   0.03127

 Mulliken charges:
               1
     1  C    0.402697
     2  C   -0.033758
     3  C    0.115941
     4  C    0.182251
     5  C    0.237204
     6  C   -0.747979
     7  C    0.194373
     8  C   -0.153290
     9  C    0.434176
    10  C   -0.239011
    11  C    0.264787
    12  C    0.194622
    13  C   -0.607873
    14  C   -0.635453
    15  H    0.122004
    16  H    0.122955
    17  H    0.116995
    18  N   -0.161923
    19  N   -0.160641
    20  O   -0.526358
    21  O   -0.515450
    22  O   -0.515663
    23  O   -0.391382
    24  C   -0.209332
    25  H    0.161119
    26  H    0.160088
    27  H    0.168666
    28  C   -0.199977
    29  H    0.159367
    30  H    0.159370
    31  H    0.168302
    32  C    0.274304
    33  C   -0.748934
    34  S   -0.271660
    35  C   -0.242854
    36  H    0.133882
    37  C    0.329771
    38  O   -0.162492
    39  C    0.854182
    40  C   -0.255372
    41  C    0.032067
    42  S   -0.233665
    43  H    0.172285
    44  H    0.160193
    45  H    0.162715
    46  C   -0.512928
    47  O   -0.176506
    48  C   -0.359841
    49  H    0.157165
    50  C   -0.247029
    51  H    0.184130
    52  H    0.157287
    53  H    0.170930
    54  H    0.155544
 Sum of Mulliken charges =  -2.00000

 Dipole moment (field-independent basis, Debye):
    X=            -27.9230    Y=             -2.7878    Z=             -0.0496  Tot=             28.0618
 Quadrupole moment (field-independent basis, Debye-Ang):
   XX=           -380.1556   YY=           -315.1788   ZZ=           -207.2261
   XY=             -2.8424   XZ=             23.2900   YZ=             -9.1661

 Normal termination of Gaussian 16 at Thu Oct 28 11:00:42 2021.
