 Gaussian 16, Revision C.01,
 Gaussian 16:  ES64L-G16RevC.01  3-Jul-2019

 ---------------------------------------------------------------
 # opt=modredundant b3lyp/6-311+g(d,p) scrf=(pcm, solvent=water)
 ---------------------------------------------------------------

 -----------
 NDI_170.pdb
 -----------
 Symbolic Z-matrix:
 Charge = -2 Multiplicity = 1

 SCF Done:  E(RB3LYP) =  -2359.55914147     A.U. after   17 cycles
 SCF Done:  E(RB3LYP) =  -2359.59445706     A.U. after   17 cycles
 SCF Done:  E(RB3LYP) =  -2359.61039624     A.U. after   16 cycles
 SCF Done:  E(RB3LYP) =  -2359.61577165     A.U. after   16 cycles
 SCF Done:  E(RB3LYP) =  -2359.61876340     A.U. after   16 cycles
 SCF Done:  E(RB3LYP) =  -2359.62020106     A.U. after   16 cycles
 SCF Done:  E(RB3LYP) =  -2359.62065454     A.U. after   13 cycles
 SCF Done:  E(RB3LYP) =  -2359.62109149     A.U. after   13 cycles
 SCF Done:  E(RB3LYP) =  -2359.62140146     A.U. after   13 cycles
 SCF Done:  E(RB3LYP) =  -2359.62150435     A.U. after   12 cycles
 SCF Done:  E(RB3LYP) =  -2359.62162138     A.U. after   10 cycles
 SCF Done:  E(RB3LYP) =  -2359.62162293     A.U. after    9 cycles
 SCF Done:  E(RB3LYP) =  -2359.62162476     A.U. after   10 cycles
 SCF Done:  E(RB3LYP) =  -2359.62162609     A.U. after    9 cycles
 SCF Done:  E(RB3LYP) =  -2359.62162668     A.U. after    9 cycles
 SCF Done:  E(RB3LYP) =  -2359.62162694     A.U. after   10 cycles
 SCF Done:  E(RB3LYP) =  -2359.62162701     A.U. after    9 cycles
 SCF Done:  E(RB3LYP) =  -2359.62162705     A.U. after    9 cycles
 SCF Done:  E(RB3LYP) =  -2359.62162704     A.U. after    8 cycles
 SCF Done:  E(RB3LYP) =  -2359.62162703     A.U. after    8 cycles
 Optimization completed.
    -- Stationary point found.

                         Standard orientation:
 ---------------------------------------------------------------------
 Center     Atomic      Atomic             Coordinates (Angstroms)
 Number     Number       Type             X           Y           Z
 ---------------------------------------------------------------------
      1          6           0       -3.595063   -2.635169   -0.125903
      2          6           0       -2.827777   -1.444611    0.105157
      3          6           0       -3.407555   -0.169588   -0.120328
      4          6           0       -4.739969   -0.042087   -0.574347
      5          6           0       -5.534942   -1.216562   -0.819533
      6          6           0       -1.453691   -1.543764    0.448793
      7          6           0       -2.614040    1.007989    0.145720
      8          6           0       -1.274960    0.878163    0.620889
      9          6           0       -0.653622   -0.446182    0.686396
     10          6           0       -0.658384    2.042998    1.190428
     11          6           0       -2.510981    3.476513    0.308551
     12          6           0       -3.225387    2.277873   -0.027794
     13          6           0       -4.571682    2.375047   -0.506729
     14          6           0       -5.305810    1.257852   -0.776094
     15          1           0       -6.327047    1.327687   -1.129202
     16          1           0       -4.992629    3.364810   -0.634076
     17          1           0       -1.019313   -2.533763    0.418807
     18          7           0       -1.257568    3.291676    0.904554
     19          7           0       -4.916771   -2.456917   -0.570668
     20          8           0       -3.170077   -3.803274    0.038163
     21          8           0       -6.719197   -1.184376   -1.227044
     22          8           0       -2.954975    4.637210    0.131556
     23          8           0        0.350975    2.042096    1.932478
     24          6           0       -0.543399    4.479090    1.378862
     25          1           0       -0.677491    4.614418    2.456046
     26          1           0        0.520574    4.365419    1.180798
     27          1           0       -0.943397    5.343814    0.858410
     28          6           0       -5.692489   -3.678890   -0.796104
     29          1           0       -5.245075   -4.271721   -1.596553
     30          1           0       -5.704637   -4.285868    0.109857
     31          1           0       -6.701565   -3.389508   -1.070389
     32          6           0        0.797196   -0.685225    0.711853
     33          6           0        1.437550   -1.887100    0.964128
     34         16           0        1.936950    0.445851    0.003662
     35          6           0        2.808094   -1.894579    0.615695
     36          1           0        0.931326   -2.736866    1.397568
     37          6           0        3.269667   -0.709020    0.057465
     38          8           0        3.674734   -2.935491    0.795899
     39          6           0        4.611301   -0.376837   -0.353316
     40          6           0        3.166611   -4.136951    1.380092
     41          6           0        5.076140    0.795943   -0.937042
     42         16           0        5.964278   -1.495560   -0.164698
     43          1           0        4.010464   -4.822163    1.436239
     44          1           0        2.778869   -3.951996    2.385977
     45          1           0        2.381518   -4.575614    0.757465
     46          6           0        6.472849    0.799299   -1.221940
     47          8           0        4.205620    1.817187   -1.191174
     48          6           0        7.080727   -0.369288   -0.860384
     49          1           0        7.000347    1.626088   -1.675368
     50          6           0        4.729965    3.007788   -1.783028
     51          1           0        8.119931   -0.640394   -0.965798
     52          1           0        5.165475    2.801046   -2.765026
     53          1           0        3.883681    3.682518   -1.896913
     54          1           0        5.480945    3.471087   -1.136412
 ---------------------------------------------------------------------

 The electronic state is 1-A.
 Alpha  occ. eigenvalues --  -88.87507 -88.86316 -19.15805 -19.15738 -19.07078
 Alpha  occ. eigenvalues --  -19.06927 -19.06682 -19.06358 -14.34805 -14.34399
 Alpha  occ. eigenvalues --  -10.25508 -10.25231 -10.25042 -10.24909 -10.23385
 Alpha  occ. eigenvalues --  -10.23065 -10.22219 -10.22143 -10.20876 -10.20271
 Alpha  occ. eigenvalues --  -10.19916 -10.19675 -10.18646 -10.18498 -10.18188
 Alpha  occ. eigenvalues --  -10.17972 -10.17925 -10.17664 -10.16564 -10.15976
 Alpha  occ. eigenvalues --  -10.15809 -10.15735 -10.15523 -10.15500 -10.15448
 Alpha  occ. eigenvalues --  -10.15344  -7.96072  -7.94876  -5.92381  -5.91999
 Alpha  occ. eigenvalues --   -5.91641  -5.91198  -5.90809  -5.90416  -1.07091
 Alpha  occ. eigenvalues --   -1.06956  -1.02727  -1.02380  -1.00309  -0.99917
 Alpha  occ. eigenvalues --   -0.91377  -0.90982  -0.88744  -0.87249  -0.86148
 Alpha  occ. eigenvalues --   -0.81376  -0.79169  -0.77361  -0.75340  -0.74149
 Alpha  occ. eigenvalues --   -0.73732  -0.72780  -0.71654  -0.71145  -0.69131
 Alpha  occ. eigenvalues --   -0.68775  -0.67987  -0.66277  -0.62666  -0.61893
 Alpha  occ. eigenvalues --   -0.61016  -0.59980  -0.58764  -0.57235  -0.55012
 Alpha  occ. eigenvalues --   -0.54815  -0.53713  -0.53265  -0.52915  -0.50708
 Alpha  occ. eigenvalues --   -0.49777  -0.47697  -0.47315  -0.47103  -0.46998
 Alpha  occ. eigenvalues --   -0.46525  -0.46235  -0.45901  -0.45491  -0.44930
 Alpha  occ. eigenvalues --   -0.44497  -0.44300  -0.44166  -0.42927  -0.42258
 Alpha  occ. eigenvalues --   -0.41301  -0.41104  -0.40922  -0.40566  -0.40379
 Alpha  occ. eigenvalues --   -0.40219  -0.40077  -0.39266  -0.38438  -0.38325
 Alpha  occ. eigenvalues --   -0.38031  -0.37563  -0.37505  -0.37113  -0.37030
 Alpha  occ. eigenvalues --   -0.36247  -0.36080  -0.35279  -0.34837  -0.34441
 Alpha  occ. eigenvalues --   -0.33448  -0.32949  -0.32771  -0.32090  -0.31809
 Alpha  occ. eigenvalues --   -0.30263  -0.27899  -0.26784  -0.26579  -0.25877
 Alpha  occ. eigenvalues --   -0.25783  -0.25094  -0.24605  -0.24409  -0.23972
 Alpha  occ. eigenvalues --   -0.23568  -0.22854  -0.20982  -0.17920  -0.13241
 Alpha virt. eigenvalues --   -0.05223  -0.03330  -0.01545  -0.00551  -0.00087
 Alpha virt. eigenvalues --    0.00622   0.00825   0.01086   0.01630   0.01796
 Alpha virt. eigenvalues --    0.02146   0.02700   0.02765   0.03120   0.03346

 Mulliken charges:
               1
     1  C    0.303810
     2  C   -0.135447
     3  C    0.081437
     4  C    0.216379
     5  C    0.167244
     6  C    0.041003
     7  C    0.096520
     8  C    0.249443
     9  C    0.213245
    10  C   -0.657810
    11  C    0.304017
    12  C    0.053833
    13  C   -0.524036
    14  C   -0.561481
    15  H    0.123672
    16  H    0.124380
    17  H    0.127756
    18  N    0.000109
    19  N   -0.157383
    20  O   -0.520053
    21  O   -0.500187
    22  O   -0.515990
    23  O   -0.456319
    24  C   -0.194071
    25  H    0.163112
    26  H    0.165667
    27  H    0.167298
    28  C   -0.195084
    29  H    0.162149
    30  H    0.159357
    31  H    0.167422
    32  C    0.009938
    33  C   -0.483843
    34  S   -0.738857
    35  C   -0.427058
    36  H    0.141971
    37  C    0.652794
    38  O   -0.169830
    39  C    0.809692
    40  C   -0.237067
    41  C   -0.006605
    42  S   -0.224588
    43  H    0.172341
    44  H    0.158532
    45  H    0.158011
    46  C   -0.557824
    47  O   -0.163474
    48  C   -0.336020
    49  H    0.156094
    50  C   -0.250054
    51  H    0.183239
    52  H    0.154913
    53  H    0.171054
    54  H    0.156646
 Sum of Mulliken charges =  -2.00000

 Dipole moment (field-independent basis, Debye):
    X=             25.3157    Y=             -3.8336    Z=             -1.9441  Tot=             25.6781
 Quadrupole moment (field-independent basis, Debye-Ang):
   XX=           -366.4612   YY=           -287.0683   ZZ=           -241.3107
   XY=             14.6682   XZ=            -25.8111   YZ=            -16.3992

 Normal termination of Gaussian 16 at Thu Oct 28 15:47:20 2021.
