 Gaussian 16, Revision C.01,
 Gaussian 16:  ES64L-G16RevC.01  3-Jul-2019

 ---------------------------------------------------------------
 # opt=modredundant b3lyp/6-311+g(d,p) scrf=(pcm, solvent=water)
 ---------------------------------------------------------------

 ------------
 NDI_-155.pdb
 ------------
 Symbolic Z-matrix:
 Charge = -2 Multiplicity = 1

 SCF Done:  E(RB3LYP) =  -2359.57632318     A.U. after   17 cycles
 SCF Done:  E(RB3LYP) =  -2359.60060088     A.U. after   17 cycles
 SCF Done:  E(RB3LYP) =  -2359.61486131     A.U. after   14 cycles
 SCF Done:  E(RB3LYP) =  -2359.61838853     A.U. after   14 cycles
 SCF Done:  E(RB3LYP) =  -2359.61973268     A.U. after   15 cycles
 SCF Done:  E(RB3LYP) =  -2359.62067021     A.U. after   15 cycles
 SCF Done:  E(RB3LYP) =  -2359.62151171     A.U. after   15 cycles
 SCF Done:  E(RB3LYP) =  -2359.62266249     A.U. after   14 cycles
 SCF Done:  E(RB3LYP) =  -2359.62332282     A.U. after   16 cycles
 SCF Done:  E(RB3LYP) =  -2359.62359801     A.U. after   13 cycles
 SCF Done:  E(RB3LYP) =  -2359.62403339     A.U. after   10 cycles
 SCF Done:  E(RB3LYP) =  -2359.62403504     A.U. after   10 cycles
 SCF Done:  E(RB3LYP) =  -2359.62403594     A.U. after    9 cycles
 SCF Done:  E(RB3LYP) =  -2359.62403621     A.U. after    8 cycles
 SCF Done:  E(RB3LYP) =  -2359.62403641     A.U. after    9 cycles
 SCF Done:  E(RB3LYP) =  -2359.62403657     A.U. after    9 cycles
 SCF Done:  E(RB3LYP) =  -2359.62403665     A.U. after    9 cycles
 SCF Done:  E(RB3LYP) =  -2359.62403680     A.U. after    8 cycles
 SCF Done:  E(RB3LYP) =  -2359.62403689     A.U. after    8 cycles
 SCF Done:  E(RB3LYP) =  -2359.62403691     A.U. after    8 cycles
 Optimization completed.
    -- Stationary point found.

                         Standard orientation:
 ---------------------------------------------------------------------
 Center     Atomic      Atomic             Coordinates (Angstroms)
 Number     Number       Type             X           Y           Z
 ---------------------------------------------------------------------
      1          6           0       -3.515434   -2.673548    0.277403
      2          6           0       -2.784762   -1.472533   -0.006467
      3          6           0       -3.411931   -0.207751    0.132883
      4          6           0       -4.758272   -0.102167    0.553840
      5          6           0       -5.516276   -1.287161    0.853677
      6          6           0       -1.401940   -1.542801   -0.331214
      7          6           0       -2.655340    0.982876   -0.182711
      8          6           0       -1.301292    0.875438   -0.619820
      9          6           0       -0.644475   -0.428728   -0.614269
     10          6           0       -0.689915    2.036457   -1.204140
     11          6           0       -2.629043    3.441709   -0.470721
     12          6           0       -3.312186    2.238053   -0.091224
     13          6           0       -4.672985    2.313003    0.351539
     14          6           0       -5.372826    1.186710    0.668432
     15          1           0       -6.403731    1.239453    0.995591
     16          1           0       -5.131388    3.292199    0.414563
     17          1           0       -0.925833   -2.511739   -0.258424
     18          7           0       -1.345930    3.273201   -1.007561
     19          7           0       -4.852643   -2.517220    0.682267
     20          8           0       -3.046446   -3.833832    0.190840
     21          8           0       -6.707482   -1.274790    1.243942
     22          8           0       -3.121233    4.592756   -0.375500
     23          8           0        0.361567    2.041968   -1.884019
     24          6           0       -0.648974    4.460418   -1.507146
     25          1           0        0.399387    4.416600   -1.216579
     26          1           0       -0.697579    4.513213   -2.598487
     27          1           0       -1.130284    5.336262   -1.083583
     28          6           0       -5.593143   -3.750819    0.956966
     29          1           0       -5.522944   -4.423590    0.102041
     30          1           0       -5.175750   -4.262589    1.827210
     31          1           0       -6.627787   -3.485530    1.148028
     32          6           0        0.811439   -0.624172   -0.670305
     33          6           0        1.482905   -1.735635   -1.136841
     34         16           0        1.917295    0.419327    0.202580
     35          6           0        2.864783   -1.744291   -0.817497
     36          1           0        0.991272   -2.514380   -1.701534
     37          6           0        3.294224   -0.649742   -0.079784
     38          8           0        3.764725   -2.704090   -1.184378
     39          6           0        4.630881   -0.339081    0.365404
     40          6           0        3.286221   -3.815500   -1.945796
     41          6           0        5.060871    0.733885    1.136650
     42         16           0        6.021342   -1.351671   -0.030895
     43          1           0        4.152654   -4.449074   -2.126222
     44          1           0        2.532312   -4.378582   -1.388289
     45          1           0        2.868859   -3.486901   -2.901852
     46          6           0        6.461937    0.746171    1.400067
     47          8           0        4.156543    1.658619    1.574179
     48          6           0        7.106836   -0.316406    0.833882
     49          1           0        6.966051    1.503610    1.982749
     50          6           0        4.644314    2.750078    2.357807
     51          1           0        8.157639   -0.558267    0.877352
     52          1           0        5.366237    3.347883    1.793839
     53          1           0        3.774497    3.359990    2.594144
     54          1           0        5.103094    2.395249    3.285341
 ---------------------------------------------------------------------

 The electronic state is 1-A.
 Alpha  occ. eigenvalues --  -88.87557 -88.86359 -19.15840 -19.15790 -19.06960
 Alpha  occ. eigenvalues --  -19.06827 -19.06659 -19.06327 -14.34743 -14.34390
 Alpha  occ. eigenvalues --  -10.25391 -10.25130 -10.25029 -10.24906 -10.23444
 Alpha  occ. eigenvalues --  -10.23153 -10.22239 -10.22167 -10.20910 -10.20221
 Alpha  occ. eigenvalues --  -10.20050 -10.19729 -10.18613 -10.18472 -10.18172
 Alpha  occ. eigenvalues --  -10.17974 -10.17959 -10.17541 -10.16650 -10.15885
 Alpha  occ. eigenvalues --  -10.15823 -10.15644 -10.15463 -10.15452 -10.15400
 Alpha  occ. eigenvalues --  -10.15311  -7.96122  -7.94929  -5.92430  -5.92048
 Alpha  occ. eigenvalues --   -5.91691  -5.91251  -5.90867  -5.90465  -1.07134
 Alpha  occ. eigenvalues --   -1.07006  -1.02614  -1.02358  -1.00177  -0.99893
 Alpha  occ. eigenvalues --   -0.91290  -0.90951  -0.88801  -0.87287  -0.86131
 Alpha  occ. eigenvalues --   -0.81353  -0.79130  -0.77391  -0.75378  -0.74161
 Alpha  occ. eigenvalues --   -0.73721  -0.72753  -0.71644  -0.71175  -0.69135
 Alpha  occ. eigenvalues --   -0.68769  -0.67975  -0.66287  -0.62622  -0.61855
 Alpha  occ. eigenvalues --   -0.60998  -0.59923  -0.58836  -0.57242  -0.55023
 Alpha  occ. eigenvalues --   -0.54846  -0.53631  -0.53308  -0.52890  -0.50664
 Alpha  occ. eigenvalues --   -0.49692  -0.47840  -0.47341  -0.47101  -0.47024
 Alpha  occ. eigenvalues --   -0.46576  -0.46177  -0.45862  -0.45476  -0.44890
 Alpha  occ. eigenvalues --   -0.44475  -0.44321  -0.44151  -0.42854  -0.42242
 Alpha  occ. eigenvalues --   -0.41285  -0.41214  -0.40901  -0.40520  -0.40409
 Alpha  occ. eigenvalues --   -0.40230  -0.40034  -0.39235  -0.38400  -0.38287
 Alpha  occ. eigenvalues --   -0.37975  -0.37583  -0.37495  -0.37018  -0.36949
 Alpha  occ. eigenvalues --   -0.36266  -0.36185  -0.35144  -0.34926  -0.34476
 Alpha  occ. eigenvalues --   -0.33380  -0.32991  -0.32750  -0.32223  -0.31817
 Alpha  occ. eigenvalues --   -0.30199  -0.27847  -0.26761  -0.26501  -0.25834
 Alpha  occ. eigenvalues --   -0.25729  -0.25069  -0.24591  -0.24307  -0.23875
 Alpha  occ. eigenvalues --   -0.23680  -0.22943  -0.20948  -0.18019  -0.13239
 Alpha virt. eigenvalues --   -0.04953  -0.03361  -0.01436  -0.00528  -0.00069
 Alpha virt. eigenvalues --    0.00601   0.00884   0.01062   0.01401   0.01645
 Alpha virt. eigenvalues --    0.02126   0.02623   0.02774   0.03099   0.03318

 Mulliken charges:
               1
     1  C    0.316325
     2  C   -0.125506
     3  C    0.091779
     4  C    0.188378
     5  C    0.193178
     6  C   -0.125963
     7  C    0.156852
     8  C    0.116475
     9  C    0.249004
    10  C   -0.529696
    11  C    0.300788
    12  C    0.031724
    13  C   -0.519511
    14  C   -0.546726
    15  H    0.123439
    16  H    0.123729
    17  H    0.127806
    18  N   -0.040145
    19  N   -0.157961
    20  O   -0.523641
    21  O   -0.505340
    22  O   -0.516132
    23  O   -0.461017
    24  C   -0.188454
    25  H    0.164463
    26  H    0.163378
    27  H    0.167734
    28  C   -0.198485
    29  H    0.159031
    30  H    0.162829
    31  H    0.167940
    32  C    0.074402
    33  C   -0.634856
    34  S   -0.728428
    35  C   -0.187809
    36  H    0.146647
    37  C    0.640025
    38  O   -0.173053
    39  C    0.810598
    40  C   -0.235532
    41  C   -0.005471
    42  S   -0.232793
    43  H    0.172183
    44  H    0.159681
    45  H    0.159006
    46  C   -0.601751
    47  O   -0.165766
    48  C   -0.336161
    49  H    0.156468
    50  C   -0.250264
    51  H    0.183573
    52  H    0.156620
    53  H    0.171131
    54  H    0.155275
 Sum of Mulliken charges =  -2.00000

 Dipole moment (field-independent basis, Debye):
    X=             25.9554    Y=             -3.4864    Z=              1.7649  Tot=             26.2479
 Quadrupole moment (field-independent basis, Debye-Ang):
   XX=           -369.3050   YY=           -290.8430   ZZ=           -236.1386
   XY=             13.2703   XZ=             26.3603   YZ=             23.5172

 Normal termination of Gaussian 16 at Thu Oct 28 11:11:36 2021.
