 Gaussian 16, Revision C.01,
 Gaussian 16:  ES64L-G16RevC.01  3-Jul-2019

 ---------------------------------------------------------------
 # opt=modredundant b3lyp/6-311+g(d,p) scrf=(pcm, solvent=water)
 ---------------------------------------------------------------

 -----------
 NDI_-10.pdb
 -----------
 Symbolic Z-matrix:
 Charge = -2 Multiplicity = 1

 SCF Done:  E(RB3LYP) =  -2359.59066344     A.U. after   17 cycles
 SCF Done:  E(RB3LYP) =  -2359.59410311     A.U. after   17 cycles
 SCF Done:  E(RB3LYP) =  -2359.60358230     A.U. after   13 cycles
 SCF Done:  E(RB3LYP) =  -2359.61393605     A.U. after   14 cycles
 SCF Done:  E(RB3LYP) =  -2359.61971949     A.U. after   16 cycles
 SCF Done:  E(RB3LYP) =  -2359.62123418     A.U. after   16 cycles
 SCF Done:  E(RB3LYP) =  -2359.62174738     A.U. after   13 cycles
 SCF Done:  E(RB3LYP) =  -2359.62185528     A.U. after   12 cycles
 SCF Done:  E(RB3LYP) =  -2359.62206910     A.U. after   13 cycles
 SCF Done:  E(RB3LYP) =  -2359.62210627     A.U. after   11 cycles
 SCF Done:  E(RB3LYP) =  -2359.62219521     A.U. after   10 cycles
 SCF Done:  E(RB3LYP) =  -2359.62219667     A.U. after   11 cycles
 SCF Done:  E(RB3LYP) =  -2359.62219840     A.U. after   10 cycles
 SCF Done:  E(RB3LYP) =  -2359.62219958     A.U. after    9 cycles
 SCF Done:  E(RB3LYP) =  -2359.62220067     A.U. after    9 cycles
 SCF Done:  E(RB3LYP) =  -2359.62220137     A.U. after    9 cycles
 SCF Done:  E(RB3LYP) =  -2359.62220176     A.U. after   10 cycles
 SCF Done:  E(RB3LYP) =  -2359.62220255     A.U. after   10 cycles
 SCF Done:  E(RB3LYP) =  -2359.62220274     A.U. after    8 cycles
 SCF Done:  E(RB3LYP) =  -2359.62220288     A.U. after    8 cycles
 Optimization completed.
    -- Stationary point found.

                         Standard orientation:
 ---------------------------------------------------------------------
 Center     Atomic      Atomic             Coordinates (Angstroms)
 Number     Number       Type             X           Y           Z
 ---------------------------------------------------------------------
      1          6           0       -2.651045   -3.014350    0.002394
      2          6           0       -2.318863   -1.620866    0.085645
      3          6           0       -3.326104   -0.635589   -0.079014
      4          6           0       -4.667943   -1.000726   -0.328547
      5          6           0       -5.034328   -2.390428   -0.421815
      6          6           0       -0.963830   -1.225082    0.213698
      7          6           0       -2.957574    0.756902    0.040904
      8          6           0       -1.604961    1.123797    0.317683
      9          6           0       -0.558879    0.090985    0.299701
     10          6           0       -1.369391    2.464324    0.776437
     11          6           0       -3.699067    3.118196    0.130397
     12          6           0       -3.990125    1.726655   -0.066759
     13          6           0       -5.338052    1.326863   -0.338268
     14          6           0       -5.670904    0.011050   -0.468905
     15          1           0       -6.691083   -0.294732   -0.664148
     16          1           0       -6.088475    2.103353   -0.421676
     17          1           0       -0.228845   -2.017554    0.143529
     18          7           0       -2.395731    3.412094    0.543222
     19          7           0       -3.998187   -3.327389   -0.248099
     20          8           0       -1.830231   -3.952870    0.130595
     21          8           0       -6.201355   -2.789269   -0.639104
     22          8           0       -4.536563    4.043117   -0.009443
     23          8           0       -0.347890    2.866698    1.379558
     24          6           0       -2.083525    4.802048    0.882660
     25          1           0       -2.135522    4.964898    1.963182
     26          1           0       -1.073632    5.036664    0.552347
     27          1           0       -2.810530    5.441268    0.391258
     28          6           0       -4.324909   -4.752836   -0.333677
     29          1           0       -3.737980   -5.226391   -1.122100
     30          1           0       -4.092077   -5.251423    0.608985
     31          1           0       -5.384326   -4.841647   -0.550485
     32          6           0        0.862516    0.371878    0.077140
     33          6           0        1.491253    1.529111   -0.328455
     34         16           0        2.072654   -0.881218    0.380051
     35          6           0        2.898947    1.406347   -0.450579
     36          1           0        0.954956    2.438877   -0.534512
     37          6           0        3.411673    0.165068   -0.106026
     38          8           0        3.749716    2.390653   -0.865956
     39          6           0        4.782599   -0.277573   -0.123354
     40          6           0        3.187909    3.651804   -1.238848
     41          6           0        5.300632   -1.517569    0.232881
     42         16           0        6.108301    0.768998   -0.637608
     43          1           0        4.028217    4.275148   -1.538979
     44          1           0        2.496621    3.540766   -2.078949
     45          1           0        2.671041    4.117036   -0.395041
     46          6           0        6.715224   -1.626176    0.096558
     47          8           0        4.461370   -2.502135    0.669981
     48          6           0        7.284153   -0.472193   -0.362319
     49          1           0        7.282982   -2.515686    0.328533
     50          6           0        5.038861   -3.759510    1.028625
     51          1           0        8.327461   -0.273887   -0.553980
     52          1           0        5.745067   -3.646563    1.856406
     53          1           0        4.209514   -4.390179    1.343035
     54          1           0        5.542770   -4.219666    0.173651
 ---------------------------------------------------------------------

 The electronic state is 1-A.
 Alpha  occ. eigenvalues --  -88.87556 -88.86389 -19.15850 -19.15760 -19.07138
 Alpha  occ. eigenvalues --  -19.06963 -19.06656 -19.06266 -14.34837 -14.34361
 Alpha  occ. eigenvalues --  -10.25574 -10.25265 -10.25006 -10.24886 -10.23444
 Alpha  occ. eigenvalues --  -10.23128 -10.22246 -10.22117 -10.20947 -10.20152
 Alpha  occ. eigenvalues --  -10.20077 -10.19718 -10.18667 -10.18486 -10.18227
 Alpha  occ. eigenvalues --  -10.17986 -10.17960 -10.17708 -10.16281 -10.16044
 Alpha  occ. eigenvalues --  -10.15888 -10.15781 -10.15532 -10.15508 -10.15456
 Alpha  occ. eigenvalues --  -10.15341  -7.96120  -7.94972  -5.92429  -5.92046
 Alpha  occ. eigenvalues --   -5.91687  -5.91300  -5.90921  -5.90494  -1.07139
 Alpha  occ. eigenvalues --   -1.06980  -1.02789  -1.02352  -1.00377  -0.99872
 Alpha  occ. eigenvalues --   -0.91428  -0.90931  -0.88775  -0.87232  -0.86142
 Alpha  occ. eigenvalues --   -0.81387  -0.79184  -0.77345  -0.75468  -0.74303
 Alpha  occ. eigenvalues --   -0.73371  -0.72988  -0.71616  -0.71220  -0.69105
 Alpha  occ. eigenvalues --   -0.68868  -0.67997  -0.66192  -0.62795  -0.61846
 Alpha  occ. eigenvalues --   -0.61077  -0.60048  -0.58764  -0.57269  -0.54986
 Alpha  occ. eigenvalues --   -0.54827  -0.53662  -0.53253  -0.52939  -0.50846
 Alpha  occ. eigenvalues --   -0.49647  -0.48009  -0.47342  -0.47003  -0.46877
 Alpha  occ. eigenvalues --   -0.46707  -0.46235  -0.45810  -0.45517  -0.44991
 Alpha  occ. eigenvalues --   -0.44501  -0.44318  -0.44108  -0.42730  -0.41928
 Alpha  occ. eigenvalues --   -0.41773  -0.41060  -0.40783  -0.40612  -0.40453
 Alpha  occ. eigenvalues --   -0.40221  -0.40066  -0.39101  -0.38476  -0.38321
 Alpha  occ. eigenvalues --   -0.38211  -0.37775  -0.37537  -0.37144  -0.36917
 Alpha  occ. eigenvalues --   -0.36261  -0.36029  -0.35234  -0.34816  -0.34473
 Alpha  occ. eigenvalues --   -0.33507  -0.32952  -0.32882  -0.32650  -0.31370
 Alpha  occ. eigenvalues --   -0.30348  -0.28021  -0.26755  -0.26569  -0.25897
 Alpha  occ. eigenvalues --   -0.25758  -0.25033  -0.24685  -0.24433  -0.23989
 Alpha  occ. eigenvalues --   -0.23574  -0.22937  -0.20968  -0.17945  -0.13270
 Alpha virt. eigenvalues --   -0.05367  -0.03415  -0.01432  -0.00503  -0.00062
 Alpha virt. eigenvalues --    0.00633   0.00800   0.01040   0.01676   0.01955
 Alpha virt. eigenvalues --    0.02182   0.02542   0.02967   0.03170   0.03233

 Mulliken charges:
               1
     1  C    0.221468
     2  C   -0.076685
     3  C    0.207077
     4  C    0.202807
     5  C    0.189501
     6  C    0.053385
     7  C    0.256621
     8  C    0.386284
     9  C   -0.022301
    10  C   -0.879209
    11  C    0.229968
    12  C    0.127271
    13  C   -0.521896
    14  C   -0.609180
    15  H    0.123848
    16  H    0.124817
    17  H    0.129280
    18  N   -0.021193
    19  N   -0.150207
    20  O   -0.522735
    21  O   -0.498091
    22  O   -0.518632
    23  O   -0.462525
    24  C   -0.173568
    25  H    0.162445
    26  H    0.162992
    27  H    0.166026
    28  C   -0.198191
    29  H    0.161521
    30  H    0.160653
    31  H    0.167708
    32  C   -0.424753
    33  C   -0.258316
    34  S   -0.624119
    35  C   -0.253609
    36  H    0.157190
    37  C    0.634815
    38  O   -0.168010
    39  C    0.863837
    40  C   -0.236067
    41  C    0.035917
    42  S   -0.217743
    43  H    0.172432
    44  H    0.157642
    45  H    0.159150
    46  C   -0.620052
    47  O   -0.167820
    48  C   -0.363173
    49  H    0.156780
    50  C   -0.249271
    51  H    0.183930
    52  H    0.155179
    53  H    0.171169
    54  H    0.155635
 Sum of Mulliken charges =  -2.00000

 Dipole moment (field-independent basis, Debye):
    X=             26.3422    Y=             -0.8169    Z=             -1.8233  Tot=             26.4179
 Quadrupole moment (field-independent basis, Debye-Ang):
   XX=           -373.1925   YY=           -286.8635   ZZ=           -238.4823
   XY=            -10.1289   XZ=             -8.2670   YZ=            -14.8493

 Normal termination of Gaussian 16 at Thu Oct 28 12:12:12 2021.
