 Gaussian 16, Revision C.01,
 Gaussian 16:  ES64L-G16RevC.01  3-Jul-2019

 ---------------------------------------------------------------
 # opt=modredundant b3lyp/6-311+g(d,p) scrf=(pcm, solvent=water)
 ---------------------------------------------------------------

 ----------
 NDI_55.pdb
 ----------
 Symbolic Z-matrix:
 Charge = -2 Multiplicity = 1

 SCF Done:  E(RB3LYP) =  -2359.60214392     A.U. after   16 cycles
 SCF Done:  E(RB3LYP) =  -2359.61958018     A.U. after   14 cycles
 SCF Done:  E(RB3LYP) =  -2359.62300884     A.U. after   15 cycles
 SCF Done:  E(RB3LYP) =  -2359.62383203     A.U. after   15 cycles
 SCF Done:  E(RB3LYP) =  -2359.62460557     A.U. after   16 cycles
 SCF Done:  E(RB3LYP) =  -2359.62497057     A.U. after   13 cycles
 SCF Done:  E(RB3LYP) =  -2359.62515847     A.U. after   12 cycles
 SCF Done:  E(RB3LYP) =  -2359.62520112     A.U. after   12 cycles
 SCF Done:  E(RB3LYP) =  -2359.62521990     A.U. after   12 cycles
 SCF Done:  E(RB3LYP) =  -2359.62522976     A.U. after   11 cycles
 SCF Done:  E(RB3LYP) =  -2359.62527235     A.U. after    8 cycles
 SCF Done:  E(RB3LYP) =  -2359.62527247     A.U. after    8 cycles
 SCF Done:  E(RB3LYP) =  -2359.62527261     A.U. after    9 cycles
 SCF Done:  E(RB3LYP) =  -2359.62527275     A.U. after    8 cycles
 SCF Done:  E(RB3LYP) =  -2359.62527290     A.U. after    9 cycles
 SCF Done:  E(RB3LYP) =  -2359.62527311     A.U. after    8 cycles
 SCF Done:  E(RB3LYP) =  -2359.62527327     A.U. after    8 cycles
 SCF Done:  E(RB3LYP) =  -2359.62527338     A.U. after    8 cycles
 SCF Done:  E(RB3LYP) =  -2359.62527354     A.U. after    9 cycles
 SCF Done:  E(RB3LYP) =  -2359.62527369     A.U. after    9 cycles
 Optimization completed.
    -- Stationary point found.

                         Standard orientation:
 ---------------------------------------------------------------------
 Center     Atomic      Atomic             Coordinates (Angstroms)
 Number     Number       Type             X           Y           Z
 ---------------------------------------------------------------------
      1          6           0       -2.868094   -2.918366    0.456229
      2          6           0       -2.435352   -1.570196    0.233046
      3          6           0       -3.388507   -0.533198    0.072133
      4          6           0       -4.777413   -0.803715    0.130335
      5          6           0       -5.244259   -2.142565    0.359823
      6          6           0       -1.045473   -1.258078    0.240217
      7          6           0       -2.922896    0.814338   -0.172461
      8          6           0       -1.523568    1.085987   -0.245460
      9          6           0       -0.575771    0.018089    0.045727
     10          6           0       -1.102237    2.385976   -0.693161
     11          6           0       -3.481856    3.177159   -0.655955
     12          6           0       -3.891567    1.834268   -0.366136
     13          6           0       -5.290615    1.529210   -0.292193
     14          6           0       -5.721298    0.259098   -0.051552
     15          1           0       -6.777061    0.023752   -0.002105
     16          1           0       -5.993945    2.339021   -0.441756
     17          1           0       -0.354276   -2.055260    0.483695
     18          7           0       -2.102427    3.378262   -0.806092
     19          7           0       -4.255719   -3.134786    0.510629
     20          8           0       -2.100519   -3.900143    0.606493
     21          8           0       -6.456403   -2.459781    0.427132
     22          8           0       -4.274605    4.141142   -0.797485
     23          8           0        0.065793    2.710901   -1.004125
     24          6           0       -1.637872    4.714194   -1.185840
     25          1           0       -0.826971    5.025323   -0.527458
     26          1           0       -1.260463    4.715322   -2.211241
     27          1           0       -2.478538    5.395666   -1.104798
     28          6           0       -4.686181   -4.515184    0.743942
     29          1           0       -4.344233   -5.161434   -0.066733
     30          1           0       -4.262076   -4.888983    1.677097
     31          1           0       -5.770085   -4.523593    0.794034
     32          6           0        0.863520    0.253251    0.261637
     33          6           0        1.482687    1.092433    1.152955
     34         16           0        2.043950   -0.710252   -0.595905
     35          6           0        2.897522    0.966269    1.154979
     36          1           0        0.933908    1.776026    1.783562
     37          6           0        3.399254    0.025438    0.265595
     38          8           0        3.761138    1.665970    1.947902
     39          6           0        4.773874   -0.345330    0.031903
     40          6           0        3.212686    2.639000    2.840921
     41          6           0        5.275749   -1.288100   -0.856054
     42         16           0        6.118893    0.399465    0.897337
     43          1           0        4.061918    3.081477    3.358249
     44          1           0        2.673542    3.416131    2.292043
     45          1           0        2.544894    2.171140    3.569822
     46          6           0        6.696078   -1.411451   -0.843838
     47          8           0        4.416205   -1.997318   -1.645035
     48          6           0        7.283229   -0.563436    0.051501
     49          1           0        7.254275   -2.094103   -1.468176
     50          6           0        4.973306   -2.967979   -2.534482
     51          1           0        8.334064   -0.445037    0.266686
     52          1           0        5.512607   -3.743490   -1.982814
     53          1           0        4.128778   -3.414534   -3.055801
     54          1           0        5.642634   -2.497995   -3.260903
 ---------------------------------------------------------------------

 The electronic state is 1-A.
 Alpha  occ. eigenvalues --  -88.87600 -88.86777 -19.15895 -19.15843 -19.06785
 Alpha  occ. eigenvalues --  -19.06709 -19.06575 -19.06232 -14.34660 -14.34357
 Alpha  occ. eigenvalues --  -10.25219 -10.25002 -10.24950 -10.24890 -10.23473
 Alpha  occ. eigenvalues --  -10.23291 -10.22268 -10.22185 -10.20954 -10.20147
 Alpha  occ. eigenvalues --  -10.20133 -10.19763 -10.18558 -10.18408 -10.18147
 Alpha  occ. eigenvalues --  -10.17992 -10.17950 -10.17545 -10.16617 -10.15927
 Alpha  occ. eigenvalues --  -10.15768 -10.15492 -10.15375 -10.15374 -10.15308
 Alpha  occ. eigenvalues --  -10.15234  -7.96165  -7.95346  -5.92473  -5.92090
 Alpha  occ. eigenvalues --   -5.91734  -5.91664  -5.91281  -5.90895  -1.07186
 Alpha  occ. eigenvalues --   -1.07067  -1.02459  -1.02282  -1.00001  -0.99805
 Alpha  occ. eigenvalues --   -0.91173  -0.90867  -0.88898  -0.87365  -0.86117
 Alpha  occ. eigenvalues --   -0.81296  -0.79073  -0.77379  -0.75483  -0.74258
 Alpha  occ. eigenvalues --   -0.73526  -0.72831  -0.71597  -0.71249  -0.69165
 Alpha  occ. eigenvalues --   -0.68770  -0.67943  -0.66251  -0.62623  -0.61761
 Alpha  occ. eigenvalues --   -0.60960  -0.59891  -0.58888  -0.57256  -0.55024
 Alpha  occ. eigenvalues --   -0.54888  -0.53507  -0.53360  -0.52865  -0.50687
 Alpha  occ. eigenvalues --   -0.49435  -0.48262  -0.47380  -0.47061  -0.46980
 Alpha  occ. eigenvalues --   -0.46661  -0.46083  -0.45760  -0.45457  -0.44851
 Alpha  occ. eigenvalues --   -0.44442  -0.44292  -0.44233  -0.42555  -0.42048
 Alpha  occ. eigenvalues --   -0.41738  -0.41114  -0.40859  -0.40454  -0.40427
 Alpha  occ. eigenvalues --   -0.40179  -0.40002  -0.39114  -0.38281  -0.38220
 Alpha  occ. eigenvalues --   -0.38142  -0.37704  -0.37339  -0.36952  -0.36874
 Alpha  occ. eigenvalues --   -0.36447  -0.36176  -0.35104  -0.34897  -0.34472
 Alpha  occ. eigenvalues --   -0.33328  -0.32975  -0.32758  -0.32464  -0.31703
 Alpha  occ. eigenvalues --   -0.30256  -0.27824  -0.26691  -0.26343  -0.25801
 Alpha  occ. eigenvalues --   -0.25585  -0.25015  -0.24651  -0.24171  -0.23865
 Alpha  occ. eigenvalues --   -0.23741  -0.22993  -0.20880  -0.18118  -0.13205
 Alpha virt. eigenvalues --   -0.04591  -0.03329  -0.01356  -0.00431  -0.00033
 Alpha virt. eigenvalues --    0.00590   0.00807   0.00959   0.01248   0.01551
 Alpha virt. eigenvalues --    0.01906   0.02621   0.02634   0.03082   0.03179

 Mulliken charges:
               1
     1  C    0.375207
     2  C   -0.200881
     3  C    0.072026
     4  C    0.169809
     5  C    0.219738
     6  C   -0.519344
     7  C    0.211409
     8  C    0.094858
     9  C    0.450012
    10  C   -0.407470
    11  C    0.220882
    12  C    0.089233
    13  C   -0.521915
    14  C   -0.614774
    15  H    0.122461
    16  H    0.122941
    17  H    0.132534
    18  N   -0.121262
    19  N   -0.158598
    20  O   -0.527832
    21  O   -0.509088
    22  O   -0.515362
    23  O   -0.403280
    24  C   -0.190032
    25  H    0.160127
    26  H    0.160641
    27  H    0.167724
    28  C   -0.198661
    29  H    0.159701
    30  H    0.159962
    31  H    0.167957
    32  C    0.060128
    33  C   -0.440130
    34  S   -0.474497
    35  C   -0.268518
    36  H    0.139212
    37  C    0.587106
    38  O   -0.173185
    39  C    0.721083
    40  C   -0.233042
    41  C   -0.009151
    42  S   -0.244193
    43  H    0.171836
    44  H    0.160236
    45  H    0.158688
    46  C   -0.579035
    47  O   -0.170356
    48  C   -0.347873
    49  H    0.156815
    50  C   -0.250414
    51  H    0.183450
    52  H    0.156145
    53  H    0.170850
    54  H    0.156121
 Sum of Mulliken charges =  -2.00000

 Dipole moment (field-independent basis, Debye):
    X=             27.3556    Y=             -1.0470    Z=              1.7151  Tot=             27.4293
 Quadrupole moment (field-independent basis, Debye-Ang):
   XX=           -380.4946   YY=           -297.5189   ZZ=           -224.8344
   XY=             -9.6775   XZ=             -7.0673   YZ=             30.7760

 Normal termination of Gaussian 16 at Thu Oct 28 13:19:29 2021.
