 Gaussian 16, Revision C.01,
 Gaussian 16:  ES64L-G16RevC.01  3-Jul-2019

 ---------------------------------------------------------------
 # opt=modredundant b3lyp/6-311+g(d,p) scrf=(pcm, solvent=water)
 ---------------------------------------------------------------

 ----------
 NDI_60.pdb
 ----------
 Symbolic Z-matrix:
 Charge = -2 Multiplicity = 1

 SCF Done:  E(RB3LYP) =  -2359.60212851     A.U. after   16 cycles
 SCF Done:  E(RB3LYP) =  -2359.61978644     A.U. after   14 cycles
 SCF Done:  E(RB3LYP) =  -2359.62350032     A.U. after   16 cycles
 SCF Done:  E(RB3LYP) =  -2359.62405255     A.U. after   15 cycles
 SCF Done:  E(RB3LYP) =  -2359.62475319     A.U. after   15 cycles
 SCF Done:  E(RB3LYP) =  -2359.62494713     A.U. after   12 cycles
 SCF Done:  E(RB3LYP) =  -2359.62502451     A.U. after   12 cycles
 SCF Done:  E(RB3LYP) =  -2359.62504434     A.U. after   11 cycles
 SCF Done:  E(RB3LYP) =  -2359.62505733     A.U. after   11 cycles
 SCF Done:  E(RB3LYP) =  -2359.62506497     A.U. after   11 cycles
 SCF Done:  E(RB3LYP) =  -2359.62510718     A.U. after    9 cycles
 SCF Done:  E(RB3LYP) =  -2359.62510739     A.U. after    9 cycles
 SCF Done:  E(RB3LYP) =  -2359.62510742     A.U. after    8 cycles
 SCF Done:  E(RB3LYP) =  -2359.62510739     A.U. after    9 cycles
 SCF Done:  E(RB3LYP) =  -2359.62510739     A.U. after    8 cycles
 SCF Done:  E(RB3LYP) =  -2359.62510732     A.U. after    8 cycles
 SCF Done:  E(RB3LYP) =  -2359.62510732     A.U. after    8 cycles
 SCF Done:  E(RB3LYP) =  -2359.62510733     A.U. after    8 cycles
 SCF Done:  E(RB3LYP) =  -2359.62510739     A.U. after    8 cycles
 SCF Done:  E(RB3LYP) =  -2359.62510747     A.U. after    8 cycles
 Optimization completed.
    -- Stationary point found.

                         Standard orientation:
 ---------------------------------------------------------------------
 Center     Atomic      Atomic             Coordinates (Angstroms)
 Number     Number       Type             X           Y           Z
 ---------------------------------------------------------------------
      1          6           0       -2.904527   -2.899676    0.492557
      2          6           0       -2.455952   -1.557920    0.262825
      3          6           0       -3.396098   -0.516025    0.063712
      4          6           0       -4.788358   -0.776534    0.085517
      5          6           0       -5.271147   -2.108388    0.320308
      6          6           0       -1.063349   -1.257508    0.292462
      7          6           0       -2.914250    0.826078   -0.180572
      8          6           0       -1.511401    1.088375   -0.213786
      9          6           0       -0.579974    0.012684    0.097777
     10          6           0       -1.067086    2.390449   -0.633166
     11          6           0       -3.443582    3.188701   -0.697712
     12          6           0       -3.870096    1.850337   -0.412515
     13          6           0       -5.272845    1.554210   -0.380921
     14          6           0       -5.719058    0.289978   -0.138470
     15          1           0       -6.777415    0.061980   -0.117688
     16          1           0       -5.965822    2.366764   -0.560659
     17          1           0       -0.381777   -2.059438    0.547338
     18          7           0       -2.058141    3.387310   -0.778774
     19          7           0       -4.294630   -3.104790    0.515472
     20          8           0       -2.148552   -3.885220    0.675168
     21          8           0       -6.487173   -2.416819    0.356574
     22          8           0       -4.225530    4.153263   -0.888395
     23          8           0        0.114564    2.713643   -0.890399
     24          6           0       -1.574775    4.727754   -1.116620
     25          1           0       -0.748230    4.994848   -0.459653
     26          1           0       -1.213782    4.764329   -2.147878
     27          1           0       -2.400507    5.421946   -0.997615
     28          6           0       -4.741885   -4.477745    0.760578
     29          1           0       -4.408294   -5.136308   -0.044034
     30          1           0       -4.321690   -4.847224    1.696924
     31          1           0       -5.825876   -4.472973    0.809366
     32          6           0        0.863750    0.229341    0.317482
     33          6           0        1.492233    1.002029    1.259568
     34         16           0        2.031982   -0.679772   -0.610923
     35          6           0        2.907559    0.875435    1.237716
     36          1           0        0.950839    1.641760    1.940870
     37          6           0        3.397919   -0.004583    0.282480
     38          8           0        3.780381    1.519425    2.066828
     39          6           0        4.769719   -0.360071    0.009526
     40          6           0        3.245191    2.451244    3.010470
     41          6           0        5.259576   -1.248850   -0.938577
     42         16           0        6.126159    0.335218    0.897837
     43          1           0        4.101008    2.860153    3.544303
     44          1           0        2.709896    3.259226    2.503986
     45          1           0        2.577375    1.953420    3.719180
     46          6           0        6.680157   -1.369609   -0.954399
     47          8           0        4.389553   -1.913720   -1.754095
     48          6           0        7.279138   -0.574061   -0.019664
     49          1           0        7.230007   -2.013684   -1.625380
     50          6           0        4.934953   -2.829135   -2.707175
     51          1           0        8.332823   -0.466740    0.187259
     52          1           0        5.484295   -3.633860   -2.210001
     53          1           0        4.083438   -3.247053   -3.240717
     54          1           0        5.592036   -2.315562   -3.414990
 ---------------------------------------------------------------------

 The electronic state is 1-A.
 Alpha  occ. eigenvalues --  -88.87611 -88.86798 -19.15904 -19.15849 -19.06750
 Alpha  occ. eigenvalues --  -19.06686 -19.06554 -19.06239 -14.34645 -14.34358
 Alpha  occ. eigenvalues --  -10.25182 -10.24978 -10.24921 -10.24906 -10.23487
 Alpha  occ. eigenvalues --  -10.23302 -10.22272 -10.22191 -10.20960 -10.20165
 Alpha  occ. eigenvalues --  -10.20151 -10.19776 -10.18550 -10.18413 -10.18149
 Alpha  occ. eigenvalues --  -10.17999 -10.17949 -10.17529 -10.16647 -10.15960
 Alpha  occ. eigenvalues --  -10.15737 -10.15462 -10.15359 -10.15357 -10.15291
 Alpha  occ. eigenvalues --  -10.15219  -7.96175  -7.95367  -5.92483  -5.92101
 Alpha  occ. eigenvalues --   -5.91744  -5.91684  -5.91301  -5.90918  -1.07195
 Alpha  occ. eigenvalues --   -1.07074  -1.02429  -1.02277  -0.99964  -0.99792
 Alpha  occ. eigenvalues --   -0.91152  -0.90862  -0.88912  -0.87375  -0.86111
 Alpha  occ. eigenvalues --   -0.81283  -0.79062  -0.77386  -0.75484  -0.74255
 Alpha  occ. eigenvalues --   -0.73540  -0.72810  -0.71603  -0.71254  -0.69170
 Alpha  occ. eigenvalues --   -0.68766  -0.67942  -0.66258  -0.62605  -0.61757
 Alpha  occ. eigenvalues --   -0.60948  -0.59871  -0.58911  -0.57260  -0.55028
 Alpha  occ. eigenvalues --   -0.54895  -0.53496  -0.53374  -0.52858  -0.50665
 Alpha  occ. eigenvalues --   -0.49410  -0.48301  -0.47387  -0.47069  -0.46992
 Alpha  occ. eigenvalues --   -0.46654  -0.46075  -0.45769  -0.45450  -0.44835
 Alpha  occ. eigenvalues --   -0.44439  -0.44291  -0.44239  -0.42541  -0.42084
 Alpha  occ. eigenvalues --   -0.41734  -0.41115  -0.40861  -0.40463  -0.40401
 Alpha  occ. eigenvalues --   -0.40175  -0.39991  -0.39124  -0.38287  -0.38197
 Alpha  occ. eigenvalues --   -0.38105  -0.37700  -0.37317  -0.36974  -0.36850
 Alpha  occ. eigenvalues --   -0.36461  -0.36176  -0.35116  -0.34878  -0.34460
 Alpha  occ. eigenvalues --   -0.33332  -0.32992  -0.32768  -0.32404  -0.31697
 Alpha  occ. eigenvalues --   -0.30231  -0.27810  -0.26692  -0.26332  -0.25815
 Alpha  occ. eigenvalues --   -0.25563  -0.24992  -0.24634  -0.24156  -0.23899
 Alpha  occ. eigenvalues --   -0.23710  -0.23022  -0.20872  -0.18145  -0.13197
 Alpha virt. eigenvalues --   -0.04506  -0.03330  -0.01341  -0.00422  -0.00034
 Alpha virt. eigenvalues --    0.00580   0.00732   0.00978   0.01203   0.01520
 Alpha virt. eigenvalues --    0.01872   0.02610   0.02639   0.03074   0.03173

 Mulliken charges:
               1
     1  C    0.394994
     2  C   -0.189473
     3  C    0.087805
     4  C    0.155949
     5  C    0.224463
     6  C   -0.532395
     7  C    0.211536
     8  C    0.059442
     9  C    0.460687
    10  C   -0.397614
    11  C    0.210101
    12  C    0.093151
    13  C   -0.518531
    14  C   -0.618331
    15  H    0.122244
    16  H    0.122829
    17  H    0.130428
    18  N   -0.133529
    19  N   -0.159753
    20  O   -0.527805
    21  O   -0.510900
    22  O   -0.516829
    23  O   -0.392968
    24  C   -0.199989
    25  H    0.161278
    26  H    0.161735
    27  H    0.167100
    28  C   -0.199566
    29  H    0.160034
    30  H    0.159711
    31  H    0.167915
    32  C    0.044233
    33  C   -0.449337
    34  S   -0.434716
    35  C   -0.230141
    36  H    0.137980
    37  C    0.558966
    38  O   -0.174334
    39  C    0.715657
    40  C   -0.232890
    41  C   -0.014126
    42  S   -0.247359
    43  H    0.171718
    44  H    0.160838
    45  H    0.158462
    46  C   -0.570267
    47  O   -0.170910
    48  C   -0.350977
    49  H    0.156903
    50  C   -0.250131
    51  H    0.183495
    52  H    0.155928
    53  H    0.170870
    54  H    0.156418
 Sum of Mulliken charges =  -2.00000

 Dipole moment (field-independent basis, Debye):
    X=             27.5141    Y=             -1.1387    Z=              1.7360  Tot=             27.5923
 Quadrupole moment (field-independent basis, Debye-Ang):
   XX=           -381.1477   YY=           -299.1486   ZZ=           -222.9352
   XY=             -9.2555   XZ=             -9.7615   YZ=             31.7606

 Normal termination of Gaussian 16 at Thu Oct 28 13:35:45 2021.
