 Gaussian 16, Revision C.01,
 Gaussian 16:  ES64L-G16RevC.01  3-Jul-2019

 ---------------------------------------------------------------
 # opt=modredundant b3lyp/6-311+g(d,p) scrf=(pcm, solvent=water)
 ---------------------------------------------------------------

 ---------
 NDI_5.pdb
 ---------
 Symbolic Z-matrix:
 Charge = -2 Multiplicity = 1

 SCF Done:  E(RB3LYP) =  -2359.58217592     A.U. after   17 cycles
 SCF Done:  E(RB3LYP) =  -2359.59028534     A.U. after   17 cycles
 SCF Done:  E(RB3LYP) =  -2359.61085357     A.U. after   17 cycles
 SCF Done:  E(RB3LYP) =  -2359.61485226     A.U. after   14 cycles
 SCF Done:  E(RB3LYP) =  -2359.61554093     A.U. after   13 cycles
 SCF Done:  E(RB3LYP) =  -2359.61558299     A.U. after   11 cycles
 SCF Done:  E(RB3LYP) =  -2359.61568097     A.U. after   11 cycles
 SCF Done:  E(RB3LYP) =  -2359.61579513     A.U. after   12 cycles
 SCF Done:  E(RB3LYP) =  -2359.61731331     A.U. after   17 cycles
 SCF Done:  E(RB3LYP) =  -2359.61702032     A.U. after   17 cycles
 SCF Done:  E(RB3LYP) =  -2359.62134304     A.U. after   10 cycles
 SCF Done:  E(RB3LYP) =  -2359.62134385     A.U. after   10 cycles
 SCF Done:  E(RB3LYP) =  -2359.62134410     A.U. after    9 cycles
 SCF Done:  E(RB3LYP) =  -2359.62134488     A.U. after    9 cycles
 SCF Done:  E(RB3LYP) =  -2359.62134534     A.U. after    9 cycles
 SCF Done:  E(RB3LYP) =  -2359.62134574     A.U. after    9 cycles
 SCF Done:  E(RB3LYP) =  -2359.62134592     A.U. after    9 cycles
 SCF Done:  E(RB3LYP) =  -2359.62134594     A.U. after    8 cycles
 SCF Done:  E(RB3LYP) =  -2359.62134592     A.U. after    8 cycles
 SCF Done:  E(RB3LYP) =  -2359.62134588     A.U. after    7 cycles
 Optimization completed.
    -- Stationary point found.

                         Standard orientation:
 ---------------------------------------------------------------------
 Center     Atomic      Atomic             Coordinates (Angstroms)
 Number     Number       Type             X           Y           Z
 ---------------------------------------------------------------------
      1          6           0       -2.627093   -3.015009   -0.081988
      2          6           0       -2.306046   -1.617249   -0.132513
      3          6           0       -3.316628   -0.643992    0.076544
      4          6           0       -4.650438   -1.025332    0.342621
      5          6           0       -5.004874   -2.420066    0.408545
      6          6           0       -0.956722   -1.208661   -0.271628
      7          6           0       -2.959468    0.753332   -0.017939
      8          6           0       -1.614745    1.136795   -0.311900
      9          6           0       -0.558505    0.111294   -0.329370
     10          6           0       -1.403346    2.485682   -0.756760
     11          6           0       -3.722073    3.109583   -0.046132
     12          6           0       -3.997843    1.711990    0.129092
     13          6           0       -5.337214    1.295707    0.417108
     14          6           0       -5.658062   -0.025185    0.525148
     15          1           0       -6.672214   -0.343052    0.732287
     16          1           0       -6.091883    2.064259    0.530466
     17          1           0       -0.218409   -2.000490   -0.235642
     18          7           0       -2.431181    3.421220   -0.483536
     19          7           0       -3.966917   -3.344523    0.185820
     20          8           0       -1.802614   -3.943402   -0.251912
     21          8           0       -6.163648   -2.832808    0.642179
     22          8           0       -4.562872    4.024961    0.131076
     23          8           0       -0.402023    2.906447   -1.381869
     24          6           0       -2.138841    4.819393   -0.807041
     25          1           0       -1.122367    5.056598   -0.499638
     26          1           0       -2.221155    5.000710   -1.882758
     27          1           0       -2.857227    5.444016   -0.285147
     28          6           0       -4.282766   -4.774134    0.236174
     29          1           0       -4.043933   -5.246740   -0.718023
     30          1           0       -3.694195   -5.263234    1.014083
     31          1           0       -5.341694   -4.876223    0.449276
     32          6           0        0.863464    0.392940   -0.107786
     33          6           0        1.503543    1.563842    0.239035
     34         16           0        2.066336   -0.886332   -0.334827
     35          6           0        2.910106    1.436397    0.369582
     36          1           0        0.976219    2.489192    0.388567
     37          6           0        3.413467    0.175413    0.091326
     38          8           0        3.767893    2.435569    0.731706
     39          6           0        4.781190   -0.275349    0.129183
     40          6           0        3.215456    3.719691    1.033437
     41          6           0        5.290186   -1.536504   -0.159908
     42         16           0        6.115433    0.789817    0.579414
     43          1           0        4.060235    4.352084    1.300263
     44          1           0        2.703344    4.141652    0.164371
     45          1           0        2.522068    3.660565    1.877039
     46          6           0        6.704619   -1.646260   -0.022814
     47          8           0        4.443603   -2.538066   -0.540340
     48          6           0        7.282432   -0.472215    0.369180
     49          1           0        7.266093   -2.550850   -0.206800
     50          6           0        5.010240   -3.820804   -0.817155
     51          1           0        8.327619   -0.270468    0.546511
     52          1           0        5.508590   -4.230107    0.066476
     53          1           0        4.175665   -4.462677   -1.092658
     54          1           0        5.718673   -3.767259   -1.648993
 ---------------------------------------------------------------------

 The electronic state is 1-A.
 Alpha  occ. eigenvalues --  -88.87558 -88.86351 -19.15849 -19.15750 -19.07172
 Alpha  occ. eigenvalues --  -19.06990 -19.06663 -19.06283 -14.34856 -14.34369
 Alpha  occ. eigenvalues --  -10.25609 -10.25291 -10.25010 -10.24902 -10.23453
 Alpha  occ. eigenvalues --  -10.23106 -10.22247 -10.22109 -10.20950 -10.20194
 Alpha  occ. eigenvalues --  -10.20077 -10.19723 -10.18678 -10.18495 -10.18240
 Alpha  occ. eigenvalues --  -10.17990 -10.17962 -10.17738 -10.16220 -10.16067
 Alpha  occ. eigenvalues --  -10.15910 -10.15810 -10.15548 -10.15523 -10.15472
 Alpha  occ. eigenvalues --  -10.15352  -7.96122  -7.94936  -5.92431  -5.92048
 Alpha  occ. eigenvalues --   -5.91689  -5.91266  -5.90885  -5.90455  -1.07140
 Alpha  occ. eigenvalues --   -1.06970  -1.02821  -1.02362  -1.00414  -0.99882
 Alpha  occ. eigenvalues --   -0.91454  -0.90940  -0.88768  -0.87219  -0.86144
 Alpha  occ. eigenvalues --   -0.81393  -0.79194  -0.77346  -0.75470  -0.74312
 Alpha  occ. eigenvalues --   -0.73354  -0.72998  -0.71621  -0.71220  -0.69099
 Alpha  occ. eigenvalues --   -0.68878  -0.68009  -0.66189  -0.62814  -0.61856
 Alpha  occ. eigenvalues --   -0.61089  -0.60062  -0.58761  -0.57276  -0.54985
 Alpha  occ. eigenvalues --   -0.54824  -0.53677  -0.53248  -0.52948  -0.50864
 Alpha  occ. eigenvalues --   -0.49660  -0.47997  -0.47340  -0.46997  -0.46879
 Alpha  occ. eigenvalues --   -0.46710  -0.46251  -0.45819  -0.45526  -0.45008
 Alpha  occ. eigenvalues --   -0.44511  -0.44325  -0.44093  -0.42756  -0.41934
 Alpha  occ. eigenvalues --   -0.41785  -0.41062  -0.40781  -0.40626  -0.40466
 Alpha  occ. eigenvalues --   -0.40201  -0.40069  -0.39110  -0.38497  -0.38331
 Alpha  occ. eigenvalues --   -0.38198  -0.37814  -0.37559  -0.37162  -0.36917
 Alpha  occ. eigenvalues --   -0.36247  -0.35997  -0.35266  -0.34781  -0.34479
 Alpha  occ. eigenvalues --   -0.33543  -0.32953  -0.32909  -0.32654  -0.31278
 Alpha  occ. eigenvalues --   -0.30352  -0.28043  -0.26768  -0.26587  -0.25899
 Alpha  occ. eigenvalues --   -0.25778  -0.25035  -0.24679  -0.24459  -0.24004
 Alpha  occ. eigenvalues --   -0.23557  -0.22990  -0.20978  -0.17940  -0.13278
 Alpha virt. eigenvalues --   -0.05443  -0.03431  -0.01433  -0.00511  -0.00068
 Alpha virt. eigenvalues --    0.00635   0.00795   0.01046   0.01682   0.01987
 Alpha virt. eigenvalues --    0.02248   0.02545   0.02996   0.03175   0.03238

 Mulliken charges:
               1
     1  C    0.221617
     2  C   -0.040407
     3  C    0.236346
     4  C    0.204356
     5  C    0.207745
     6  C    0.075049
     7  C    0.229596
     8  C    0.343712
     9  C   -0.052895
    10  C   -0.872517
    11  C    0.218500
    12  C    0.141045
    13  C   -0.521558
    14  C   -0.601262
    15  H    0.123900
    16  H    0.125016
    17  H    0.129188
    18  N   -0.016462
    19  N   -0.149323
    20  O   -0.521450
    21  O   -0.497608
    22  O   -0.518686
    23  O   -0.468516
    24  C   -0.170524
    25  H    0.162840
    26  H    0.162444
    27  H    0.166077
    28  C   -0.197768
    29  H    0.160538
    30  H    0.162042
    31  H    0.167818
    32  C   -0.445274
    33  C   -0.172884
    34  S   -0.622603
    35  C   -0.329944
    36  H    0.159389
    37  C    0.597120
    38  O   -0.167162
    39  C    0.874986
    40  C   -0.236294
    41  C    0.029537
    42  S   -0.213164
    43  H    0.172459
    44  H    0.159002
    45  H    0.157013
    46  C   -0.606435
    47  O   -0.168226
    48  C   -0.369484
    49  H    0.156761
    50  C   -0.249670
    51  H    0.183979
    52  H    0.155781
    53  H    0.171174
    54  H    0.155085
 Sum of Mulliken charges =  -2.00000

 Dipole moment (field-independent basis, Debye):
    X=             26.2718    Y=             -0.8586    Z=              1.7763  Tot=             26.3457
 Quadrupole moment (field-independent basis, Debye-Ang):
   XX=           -372.1875   YY=           -285.9551   ZZ=           -239.7654
   XY=            -10.0389   XZ=             10.1377   YZ=             11.9393

 Normal termination of Gaussian 16 at Thu Oct 28 13:26:21 2021.
