 Gaussian 16, Revision C.01,
 Gaussian 16:  ES64L-G16RevC.01  3-Jul-2019

 ---------------------------------------------------------------
 # opt=modredundant b3lyp/6-311+g(d,p) scrf=(pcm, solvent=water)
 ---------------------------------------------------------------

 -----------
 NDI_-30.pdb
 -----------
 Symbolic Z-matrix:
 Charge = -2 Multiplicity = 1

 SCF Done:  E(RB3LYP) =  -2359.60376493     A.U. after   17 cycles
 SCF Done:  E(RB3LYP) =  -2359.61812120     A.U. after   15 cycles
 SCF Done:  E(RB3LYP) =  -2359.62140685     A.U. after   17 cycles
 SCF Done:  E(RB3LYP) =  -2359.62400511     A.U. after   15 cycles
 SCF Done:  E(RB3LYP) =  -2359.62436619     A.U. after   13 cycles
 SCF Done:  E(RB3LYP) =  -2359.62449662     A.U. after   12 cycles
 SCF Done:  E(RB3LYP) =  -2359.62464755     A.U. after   12 cycles
 SCF Done:  E(RB3LYP) =  -2359.62467615     A.U. after   11 cycles
 SCF Done:  E(RB3LYP) =  -2359.62469235     A.U. after   12 cycles
 SCF Done:  E(RB3LYP) =  -2359.62470518     A.U. after   11 cycles
 SCF Done:  E(RB3LYP) =  -2359.62475997     A.U. after   10 cycles
 SCF Done:  E(RB3LYP) =  -2359.62476234     A.U. after   10 cycles
 SCF Done:  E(RB3LYP) =  -2359.62476395     A.U. after   10 cycles
 SCF Done:  E(RB3LYP) =  -2359.62476478     A.U. after   10 cycles
 SCF Done:  E(RB3LYP) =  -2359.62476514     A.U. after    9 cycles
 SCF Done:  E(RB3LYP) =  -2359.62476528     A.U. after   10 cycles
 SCF Done:  E(RB3LYP) =  -2359.62476536     A.U. after   10 cycles
 SCF Done:  E(RB3LYP) =  -2359.62476544     A.U. after   10 cycles
 SCF Done:  E(RB3LYP) =  -2359.62476549     A.U. after    8 cycles
 SCF Done:  E(RB3LYP) =  -2359.62476550     A.U. after    8 cycles
 Optimization completed.
    -- Stationary point found.

                         Standard orientation:
 ---------------------------------------------------------------------
 Center     Atomic      Atomic             Coordinates (Angstroms)
 Number     Number       Type             X           Y           Z
 ---------------------------------------------------------------------
      1          6           0        2.743880   -2.985126    0.259323
      2          6           0        2.368318   -1.612425    0.082057
      3          6           0        3.357709   -0.596118    0.082793
      4          6           0        4.725592   -0.910867    0.257305
      5          6           0        5.135270   -2.277412    0.443088
      6          6           0        0.994421   -1.258310    0.008866
      7          6           0        2.946785    0.775838   -0.117280
      8          6           0        1.567542    1.092301   -0.308750
      9          6           0        0.563284    0.039816   -0.152894
     10          6           0        1.240984    2.406753   -0.790672
     11          6           0        3.610654    3.140252   -0.431486
     12          6           0        3.955827    1.773619   -0.163841
     13          6           0        5.331963    1.424819    0.028951
     14          6           0        5.707908    0.131113    0.236581
     15          1           0        6.747976   -0.136284    0.375138
     16          1           0        6.065203    2.221100   -0.005854
     17          1           0        0.275314   -2.049327    0.180885
     18          7           0        2.263955    3.383240   -0.726434
     19          7           0        4.115280   -3.247956    0.421602
     20          8           0        1.940510   -3.948005    0.281960
     21          8           0        6.325284   -2.632191    0.613758
     22          8           0        4.434993    4.087415   -0.441995
     23          8           0        0.142059    2.759052   -1.275404
     24          6           0        1.882550    4.745000   -1.107002
     25          1           0        1.776274    4.834369   -2.191886
     26          1           0        0.926591    4.995557   -0.651009
     27          1           0        2.661824    5.420184   -0.767595
     28          6           0        4.488043   -4.653932    0.595100
     29          1           0        4.065708   -5.049317    1.521441
     30          1           0        4.101750   -5.247487   -0.234096
     31          1           0        5.570882   -4.712729    0.629302
     32          6           0       -0.861614    0.310207    0.065197
     33          6           0       -1.468594    1.373294    0.691720
     34         16           0       -2.073786   -0.833511   -0.494573
     35          6           0       -2.879998    1.255177    0.769352
     36          1           0       -0.911818    2.206095    1.090323
     37          6           0       -3.404964    0.113471    0.179385
     38          8           0       -3.723599    2.149083    1.364429
     39          6           0       -4.782858   -0.301739    0.096373
     40          6           0       -3.148429    3.293636    2.000161
     41          6           0       -5.313998   -1.424211   -0.527483
     42         16           0       -6.096866    0.619370    0.831550
     43          1           0       -3.983836    3.859001    2.409016
     44          1           0       -2.476694    2.996365    2.810439
     45          1           0       -2.606358    3.912718    1.280049
     46          6           0       -6.730190   -1.544157   -0.418420
     47          8           0       -4.484008   -2.294413   -1.174661
     48          6           0       -7.286563   -0.515004    0.286613
     49          1           0       -7.308011   -2.351980   -0.843751
     50          6           0       -5.072729   -3.436119   -1.801659
     51          1           0       -8.328199   -0.350740    0.515847
     52          1           0       -5.777789   -3.136528   -2.582574
     53          1           0       -4.249049   -3.988679   -2.249647
     54          1           0       -5.580647   -4.069822   -1.068800
 ---------------------------------------------------------------------

 The electronic state is 1-A.
 Alpha  occ. eigenvalues --  -88.87559 -88.86573 -19.15856 -19.15787 -19.06986
 Alpha  occ. eigenvalues --  -19.06842 -19.06626 -19.06232 -14.34760 -14.34353
 Alpha  occ. eigenvalues --  -10.25420 -10.25141 -10.24984 -10.24886 -10.23432
 Alpha  occ. eigenvalues --  -10.23200 -10.22250 -10.22146 -10.20934 -10.20082
 Alpha  occ. eigenvalues --  -10.20055 -10.19718 -10.18623 -10.18453 -10.18189
 Alpha  occ. eigenvalues --  -10.17971 -10.17962 -10.17616 -10.16444 -10.15913
 Alpha  occ. eigenvalues --  -10.15876 -10.15657 -10.15449 -10.15446 -10.15385
 Alpha  occ. eigenvalues --  -10.15296  -7.96123  -7.95148  -5.92431  -5.92049
 Alpha  occ. eigenvalues --   -5.91691  -5.91470  -5.91091  -5.90683  -1.07142
 Alpha  occ. eigenvalues --   -1.07011  -1.02635  -1.02314  -1.00205  -0.99841
 Alpha  occ. eigenvalues --   -0.91311  -0.90896  -0.88816  -0.87289  -0.86128
 Alpha  occ. eigenvalues --   -0.81351  -0.79134  -0.77347  -0.75465  -0.74275
 Alpha  occ. eigenvalues --   -0.73438  -0.72924  -0.71595  -0.71228  -0.69128
 Alpha  occ. eigenvalues --   -0.68826  -0.67960  -0.66207  -0.62714  -0.61808
 Alpha  occ. eigenvalues --   -0.61024  -0.59983  -0.58795  -0.57245  -0.54996
 Alpha  occ. eigenvalues --   -0.54844  -0.53584  -0.53285  -0.52905  -0.50767
 Alpha  occ. eigenvalues --   -0.49567  -0.48090  -0.47350  -0.47022  -0.46907
 Alpha  occ. eigenvalues --   -0.46685  -0.46157  -0.45785  -0.45484  -0.44924
 Alpha  occ. eigenvalues --   -0.44464  -0.44297  -0.44160  -0.42638  -0.41932
 Alpha  occ. eigenvalues --   -0.41750  -0.41082  -0.40827  -0.40532  -0.40444
 Alpha  occ. eigenvalues --   -0.40234  -0.40020  -0.39076  -0.38408  -0.38274
 Alpha  occ. eigenvalues --   -0.38202  -0.37699  -0.37444  -0.37025  -0.36910
 Alpha  occ. eigenvalues --   -0.36364  -0.36098  -0.35092  -0.34939  -0.34483
 Alpha  occ. eigenvalues --   -0.33385  -0.32938  -0.32761  -0.32628  -0.31616
 Alpha  occ. eigenvalues --   -0.30335  -0.27923  -0.26720  -0.26473  -0.25839
 Alpha  occ. eigenvalues --   -0.25709  -0.25009  -0.24695  -0.24315  -0.23898
 Alpha  occ. eigenvalues --   -0.23677  -0.22851  -0.20931  -0.18000  -0.13242
 Alpha virt. eigenvalues --   -0.05020  -0.03365  -0.01411  -0.00476  -0.00046
 Alpha virt. eigenvalues --    0.00620   0.00855   0.01005   0.01616   0.01679
 Alpha virt. eigenvalues --    0.02049   0.02562   0.02796   0.03138   0.03210

 Mulliken charges:
               1
     1  C    0.281406
     2  C   -0.186481
     3  C    0.106346
     4  C    0.186750
     5  C    0.202013
     6  C   -0.242566
     7  C    0.230641
     8  C    0.362171
     9  C    0.284187
    10  C   -0.644721
    11  C    0.246522
    12  C    0.068775
    13  C   -0.514488
    14  C   -0.600054
    15  H    0.123468
    16  H    0.123998
    17  H    0.133777
    18  N   -0.062690
    19  N   -0.153733
    20  O   -0.525913
    21  O   -0.503121
    22  O   -0.516930
    23  O   -0.432823
    24  C   -0.182623
    25  H    0.162180
    26  H    0.162301
    27  H    0.166532
    28  C   -0.201477
    29  H    0.162243
    30  H    0.159173
    31  H    0.167722
    32  C   -0.026549
    33  C   -0.488763
    34  S   -0.622010
    35  C   -0.365316
    36  H    0.150151
    37  C    0.637822
    38  O   -0.168929
    39  C    0.806181
    40  C   -0.236652
    41  C    0.032729
    42  S   -0.231957
    43  H    0.172186
    44  H    0.159510
    45  H    0.158791
    46  C   -0.601201
    47  O   -0.167816
    48  C   -0.343579
    49  H    0.156760
    50  C   -0.249838
    51  H    0.183473
    52  H    0.155113
    53  H    0.170943
    54  H    0.156363
 Sum of Mulliken charges =  -2.00000

 Dipole moment (field-independent basis, Debye):
    X=            -26.6993    Y=             -0.7672    Z=              1.7887  Tot=             26.7701
 Quadrupole moment (field-independent basis, Debye-Ang):
   XX=           -376.8770   YY=           -290.9880   ZZ=           -232.8829
   XY=             10.3002   XZ=             -1.4457   YZ=             24.9667

 Normal termination of Gaussian 16 at Thu Oct 28 13:22:12 2021.
