 Gaussian 16, Revision C.01,
 Gaussian 16:  ES64L-G16RevC.01  3-Jul-2019

 ---------------------------------------------------------------
 # opt=modredundant b3lyp/6-311+g(d,p) scrf=(pcm, solvent=water)
 ---------------------------------------------------------------

 -----------
 NDI_140.pdb
 -----------
 Symbolic Z-matrix:
 Charge = -2 Multiplicity = 1

 SCF Done:  E(RB3LYP) =  -2359.59325781     A.U. after   16 cycles
 SCF Done:  E(RB3LYP) =  -2359.60936961     A.U. after   16 cycles
 SCF Done:  E(RB3LYP) =  -2359.61911237     A.U. after   15 cycles
 SCF Done:  E(RB3LYP) =  -2359.62312778     A.U. after   16 cycles
 SCF Done:  E(RB3LYP) =  -2359.62410127     A.U. after   15 cycles
 SCF Done:  E(RB3LYP) =  -2359.62488988     A.U. after   12 cycles
 SCF Done:  E(RB3LYP) =  -2359.62500881     A.U. after   12 cycles
 SCF Done:  E(RB3LYP) =  -2359.62504547     A.U. after   12 cycles
 SCF Done:  E(RB3LYP) =  -2359.62507365     A.U. after   11 cycles
 SCF Done:  E(RB3LYP) =  -2359.62510620     A.U. after   12 cycles
 SCF Done:  E(RB3LYP) =  -2359.62518276     A.U. after    9 cycles
 SCF Done:  E(RB3LYP) =  -2359.62518363     A.U. after    9 cycles
 SCF Done:  E(RB3LYP) =  -2359.62518455     A.U. after    9 cycles
 SCF Done:  E(RB3LYP) =  -2359.62518496     A.U. after    9 cycles
 SCF Done:  E(RB3LYP) =  -2359.62518525     A.U. after    9 cycles
 SCF Done:  E(RB3LYP) =  -2359.62518541     A.U. after    9 cycles
 SCF Done:  E(RB3LYP) =  -2359.62518537     A.U. after    8 cycles
 SCF Done:  E(RB3LYP) =  -2359.62518534     A.U. after    7 cycles
 SCF Done:  E(RB3LYP) =  -2359.62518531     A.U. after    7 cycles
 SCF Done:  E(RB3LYP) =  -2359.62518526     A.U. after    7 cycles
 Optimization completed.
    -- Stationary point found.

                         Standard orientation:
 ---------------------------------------------------------------------
 Center     Atomic      Atomic             Coordinates (Angstroms)
 Number     Number       Type             X           Y           Z
 ---------------------------------------------------------------------
      1          6           0        3.481783   -2.691686    0.363676
      2          6           0        2.767825   -1.487434    0.055853
      3          6           0        3.421908   -0.231542    0.136506
      4          6           0        4.780938   -0.138968    0.521937
      5          6           0        5.521506   -1.326495    0.848717
      6          6           0        1.377217   -1.541662   -0.248279
      7          6           0        2.683251    0.964679   -0.202325
      8          6           0        1.317145    0.870981   -0.602482
      9          6           0        0.642795   -0.419341   -0.546979
     10          6           0        0.696133    2.032036   -1.177590
     11          6           0        2.690868    3.414718   -0.553964
     12          6           0        3.364176    2.209495   -0.164210
     13          6           0        4.738517    2.270564    0.239186
     14          6           0        5.423638    1.140831    0.574057
     15          1           0        6.464037    1.183104    0.871303
     16          1           0        5.217723    3.241593    0.259363
     17          1           0        0.879734   -2.498740   -0.156818
     18          7           0        1.384774    3.258255   -1.039544
     19          7           0        4.828047   -2.547824    0.741800
     20          8           0        2.990391   -3.845830    0.321421
     21          8           0        6.722716   -1.325301    1.209940
     22          8           0        3.207370    4.558381   -0.506503
     23          8           0       -0.390409    2.045532   -1.799851
     24          6           0        0.688410    4.447165   -1.535754
     25          1           0        0.664821    4.458820   -2.628887
     26          1           0       -0.339200    4.445848   -1.175206
     27          1           0        1.220873    5.322421   -1.177577
     28          6           0        5.546244   -3.785398    1.054877
     29          1           0        5.095619   -4.278609    1.918683
     30          1           0        5.495859   -4.471694    0.208617
     31          1           0        6.577848   -3.528174    1.271750
     32          6           0       -0.817257   -0.587766   -0.624127
     33          6           0       -1.512487   -1.563594   -1.298286
     34         16           0       -1.898490    0.327790    0.406844
     35          6           0       -2.905744   -1.567100   -1.013741
     36          1           0       -1.033105   -2.243466   -1.987707
     37          6           0       -3.311056   -0.603987   -0.102073
     38          8           0       -3.831377   -2.407437   -1.562845
     39          6           0       -4.644974   -0.328498    0.375460
     40          6           0       -3.379862   -3.368162   -2.521005
     41          6           0       -5.053465    0.618012    1.306519
     42         16           0       -6.057697   -1.221330   -0.191112
     43          1           0       -4.265179   -3.921450   -2.828740
     44          1           0       -2.935671   -2.876444   -3.391064
     45          1           0       -2.655760   -4.056679   -2.076408
     46          6           0       -6.457025    0.629648    1.557424
     47          8           0       -4.129050    1.433652    1.892982
     48          6           0       -7.124041   -0.307680    0.821389
     49          1           0       -6.947076    1.298325    2.250265
     50          6           0       -4.592588    2.384526    2.854618
     51          1           0       -8.182113   -0.519889    0.814581
     52          1           0       -5.064582    1.885422    3.705932
     53          1           0       -3.708588    2.921253    3.193565
     54          1           0       -5.296258    3.089966    2.403291
 ---------------------------------------------------------------------

 The electronic state is 1-A.
 Alpha  occ. eigenvalues --  -88.87601 -88.86431 -19.15878 -19.15847 -19.06845
 Alpha  occ. eigenvalues --  -19.06740 -19.06626 -19.06333 -14.34684 -14.34388
 Alpha  occ. eigenvalues --  -10.25281 -10.25036 -10.25002 -10.24915 -10.23495
 Alpha  occ. eigenvalues --  -10.23235 -10.22259 -10.22196 -10.20942 -10.20223
 Alpha  occ. eigenvalues --  -10.20158 -10.19775 -10.18576 -10.18454 -10.18145
 Alpha  occ. eigenvalues --  -10.17988 -10.17967 -10.17446 -10.16752 -10.15846
 Alpha  occ. eigenvalues --  -10.15801 -10.15552 -10.15417 -10.15395 -10.15353
 Alpha  occ. eigenvalues --  -10.15275  -7.96166  -7.95006  -5.92474  -5.92091
 Alpha  occ. eigenvalues --   -5.91735  -5.91329  -5.90948  -5.90541  -1.07177
 Alpha  occ. eigenvalues --   -1.07062  -1.02505  -1.02326  -1.00053  -0.99860
 Alpha  occ. eigenvalues --   -0.91206  -0.90926  -0.88856  -0.87321  -0.86117
 Alpha  occ. eigenvalues --   -0.81324  -0.79095  -0.77416  -0.75415  -0.74178
 Alpha  occ. eigenvalues --   -0.73706  -0.72728  -0.71641  -0.71206  -0.69150
 Alpha  occ. eigenvalues --   -0.68760  -0.67962  -0.66307  -0.62581  -0.61818
 Alpha  occ. eigenvalues --   -0.60977  -0.59863  -0.58913  -0.57260  -0.55034
 Alpha  occ. eigenvalues --   -0.54881  -0.53563  -0.53361  -0.52866  -0.50625
 Alpha  occ. eigenvalues --   -0.49598  -0.48004  -0.47373  -0.47106  -0.47056
 Alpha  occ. eigenvalues --   -0.46610  -0.46124  -0.45824  -0.45466  -0.44859
 Alpha  occ. eigenvalues --   -0.44463  -0.44338  -0.44155  -0.42789  -0.42226
 Alpha  occ. eigenvalues --   -0.41386  -0.41202  -0.40909  -0.40503  -0.40410
 Alpha  occ. eigenvalues --   -0.40214  -0.40008  -0.39227  -0.38344  -0.38252
 Alpha  occ. eigenvalues --   -0.37938  -0.37629  -0.37455  -0.36971  -0.36872
 Alpha  occ. eigenvalues --   -0.36340  -0.36223  -0.35090  -0.34945  -0.34482
 Alpha  occ. eigenvalues --   -0.33325  -0.33006  -0.32756  -0.32342  -0.31753
 Alpha  occ. eigenvalues --   -0.30131  -0.27811  -0.26736  -0.26416  -0.25812
 Alpha  occ. eigenvalues --   -0.25659  -0.25047  -0.24556  -0.24210  -0.23818
 Alpha  occ. eigenvalues --   -0.23754  -0.23103  -0.20905  -0.18118  -0.13229
 Alpha virt. eigenvalues --   -0.04690  -0.03390  -0.01307  -0.00498  -0.00057
 Alpha virt. eigenvalues --    0.00576   0.00933   0.00941   0.01171   0.01575
 Alpha virt. eigenvalues --    0.02006   0.02592   0.02771   0.03077   0.03222

 Mulliken charges:
               1
     1  C    0.331162
     2  C   -0.151283
     3  C    0.110199
     4  C    0.164411
     5  C    0.212003
     6  C   -0.292507
     7  C    0.193759
     8  C    0.029780
     9  C    0.280592
    10  C   -0.469310
    11  C    0.278558
    12  C    0.039790
    13  C   -0.510224
    14  C   -0.558145
    15  H    0.122776
    16  H    0.123189
    17  H    0.124855
    18  N   -0.064997
    19  N   -0.157831
    20  O   -0.526227
    21  O   -0.508673
    22  O   -0.517201
    23  O   -0.456259
    24  C   -0.180468
    25  H    0.162906
    26  H    0.163626
    27  H    0.168103
    28  C   -0.197809
    29  H    0.161562
    30  H    0.158980
    31  H    0.168379
    32  C    0.142148
    33  C   -0.599208
    34  S   -0.626551
    35  C   -0.112344
    36  H    0.145601
    37  C    0.518580
    38  O   -0.172406
    39  C    0.817602
    40  C   -0.234984
    41  C    0.004941
    42  S   -0.243351
    43  H    0.172105
    44  H    0.160524
    45  H    0.160166
    46  C   -0.600066
    47  O   -0.167942
    48  C   -0.342407
    49  H    0.156808
    50  C   -0.249729
    51  H    0.183627
    52  H    0.155710
    53  H    0.171165
    54  H    0.156312
 Sum of Mulliken charges =  -2.00000

 Dipole moment (field-independent basis, Debye):
    X=            -26.6150    Y=             -3.2292    Z=              1.5439  Tot=             26.8546
 Quadrupole moment (field-independent basis, Debye-Ang):
   XX=           -372.2039   YY=           -295.8482   ZZ=           -229.8022
   XY=            -11.4154   XZ=            -25.9194   YZ=             27.0976

 Normal termination of Gaussian 16 at Thu Oct 28 13:45:17 2021.
