 Gaussian 16, Revision C.01,
 Gaussian 16:  ES64L-G16RevC.01  3-Jul-2019

 ---------------------------------------------------------------
 # opt=modredundant b3lyp/6-311+g(d,p) scrf=(pcm, solvent=water)
 ---------------------------------------------------------------

 -----------
 NDI_-50.pdb
 -----------
 Symbolic Z-matrix:
 Charge = -2 Multiplicity = 1

 SCF Done:  E(RB3LYP) =  -2359.60662592     A.U. after   16 cycles
 SCF Done:  E(RB3LYP) =  -2359.62228938     A.U. after   14 cycles
 SCF Done:  E(RB3LYP) =  -2359.62481599     A.U. after   14 cycles
 SCF Done:  E(RB3LYP) =  -2359.62499301     A.U. after   12 cycles
 SCF Done:  E(RB3LYP) =  -2359.62520761     A.U. after   12 cycles
 SCF Done:  E(RB3LYP) =  -2359.62530424     A.U. after   12 cycles
 SCF Done:  E(RB3LYP) =  -2359.62533588     A.U. after   11 cycles
 SCF Done:  E(RB3LYP) =  -2359.62535104     A.U. after   11 cycles
 SCF Done:  E(RB3LYP) =  -2359.62536246     A.U. after   10 cycles
 SCF Done:  E(RB3LYP) =  -2359.62537288     A.U. after   11 cycles
 SCF Done:  E(RB3LYP) =  -2359.62539488     A.U. after    8 cycles
 SCF Done:  E(RB3LYP) =  -2359.62539502     A.U. after    9 cycles
 SCF Done:  E(RB3LYP) =  -2359.62539521     A.U. after    9 cycles
 SCF Done:  E(RB3LYP) =  -2359.62539545     A.U. after    9 cycles
 SCF Done:  E(RB3LYP) =  -2359.62539569     A.U. after    8 cycles
 SCF Done:  E(RB3LYP) =  -2359.62539582     A.U. after    8 cycles
 SCF Done:  E(RB3LYP) =  -2359.62539588     A.U. after    8 cycles
 SCF Done:  E(RB3LYP) =  -2359.62539594     A.U. after    8 cycles
 SCF Done:  E(RB3LYP) =  -2359.62539601     A.U. after    8 cycles
 SCF Done:  E(RB3LYP) =  -2359.62539604     A.U. after    8 cycles
 Optimization completed.
    -- Stationary point found.

                         Standard orientation:
 ---------------------------------------------------------------------
 Center     Atomic      Atomic             Coordinates (Angstroms)
 Number     Number       Type             X           Y           Z
 ---------------------------------------------------------------------
      1          6           0        2.827841   -2.935452    0.424404
      2          6           0        2.413167   -1.580603    0.207036
      3          6           0        3.379673   -0.551126    0.079545
      4          6           0        4.763824   -0.835215    0.168609
      5          6           0        5.212637   -2.181818    0.392109
      6          6           0        1.027330   -1.254417    0.194495
      7          6           0        2.931793    0.802907   -0.161447
      8          6           0        1.537012    1.088096   -0.265327
      9          6           0        0.571936    0.027987    0.001370
     10          6           0        1.140641    2.390587   -0.727760
     11          6           0        3.524043    3.163083   -0.617688
     12          6           0        3.914320    1.814898   -0.324101
     13          6           0        5.308048    1.496931   -0.215753
     14          6           0        5.721466    0.220815    0.024372
     15          1           0        6.773490   -0.024203    0.099819
     16          1           0        6.022022    2.301743   -0.339807
     17          1           0        0.326121   -2.046579    0.425005
     18          7           0        2.151616    3.375684   -0.807748
     19          7           0        4.212172   -3.167745    0.497025
     20          8           0        2.047513   -3.909916    0.553217
     21          8           0        6.419440   -2.509975    0.490525
     22          8           0        4.328452    4.120949   -0.731214
     23          8           0       -0.013242    2.723802   -1.079776
     24          6           0        1.709597    4.715262   -1.201313
     25          1           0        1.367162    4.720179   -2.239028
     26          1           0        0.879122    5.031525   -0.570408
     27          1           0        2.551724    5.390795   -1.090988
     28          6           0        4.624012   -4.557194    0.709617
     29          1           0        4.263238   -4.918337    1.674923
     30          1           0        4.204346   -5.195241   -0.069136
     31          1           0        5.708137   -4.593306    0.682838
     32          6           0       -0.863848    0.278156    0.209948
     33          6           0       -1.478483    1.177062    1.045702
     34         16           0       -2.052182   -0.735050   -0.579912
     35          6           0       -2.892491    1.051261    1.066163
     36          1           0       -0.925885    1.900671    1.625836
     37          6           0       -3.400921    0.054500    0.243781
     38          8           0       -3.750734    1.802452    1.816746
     39          6           0       -4.776778   -0.331521    0.046895
     40          6           0       -3.194583    2.819567    2.654136
     41          6           0       -5.286004   -1.326933   -0.777381
     42         16           0       -6.114316    0.459359    0.883006
     43          1           0       -4.039979    3.294026    3.148924
     44          1           0       -2.526961    2.388264    3.405409
     45          1           0       -2.653058    3.562955    2.062583
     46          6           0       -6.705537   -1.453420   -0.740683
     47          8           0       -4.433257   -2.080248   -1.532247
     48          6           0       -7.285156   -0.555572    0.109921
     49          1           0       -7.268665   -2.173351   -1.316871
     50          6           0       -4.998402   -3.096881   -2.363284
     51          1           0       -8.333855   -0.427104    0.329667
     52          1           0       -5.674994   -2.666219   -3.107167
     53          1           0       -4.158747   -3.570644   -2.868213
     54          1           0       -5.531976   -3.841966   -1.766020
 ---------------------------------------------------------------------

 The electronic state is 1-A.
 Alpha  occ. eigenvalues --  -88.87589 -88.86745 -19.15885 -19.15831 -19.06827
 Alpha  occ. eigenvalues --  -19.06732 -19.06592 -19.06223 -14.34681 -14.34356
 Alpha  occ. eigenvalues --  -10.25261 -10.25026 -10.24967 -10.24884 -10.23458
 Alpha  occ. eigenvalues --  -10.23272 -10.22263 -10.22177 -10.20947 -10.20129
 Alpha  occ. eigenvalues --  -10.20107 -10.19749 -10.18575 -10.18415 -10.18155
 Alpha  occ. eigenvalues --  -10.17983 -10.17953 -10.17564 -10.16579 -10.15911
 Alpha  occ. eigenvalues --  -10.15793 -10.15526 -10.15393 -10.15386 -10.15327
 Alpha  occ. eigenvalues --  -10.15250  -7.96153  -7.95315  -5.92461  -5.92079
 Alpha  occ. eigenvalues --   -5.91722  -5.91633  -5.91251  -5.90862  -1.07174
 Alpha  occ. eigenvalues --   -1.07056  -1.02494  -1.02290  -1.00041  -0.99815
 Alpha  occ. eigenvalues --   -0.91201  -0.90872  -0.88880  -0.87351  -0.86121
 Alpha  occ. eigenvalues --   -0.81309  -0.79086  -0.77371  -0.75479  -0.74261
 Alpha  occ. eigenvalues --   -0.73508  -0.72852  -0.71595  -0.71246  -0.69158
 Alpha  occ. eigenvalues --   -0.68781  -0.67946  -0.66239  -0.62643  -0.61771
 Alpha  occ. eigenvalues --   -0.60974  -0.59912  -0.58865  -0.57252  -0.55018
 Alpha  occ. eigenvalues --   -0.54878  -0.53520  -0.53343  -0.52874  -0.50706
 Alpha  occ. eigenvalues --   -0.49464  -0.48221  -0.47373  -0.47052  -0.46965
 Alpha  occ. eigenvalues --   -0.46667  -0.46096  -0.45764  -0.45462  -0.44867
 Alpha  occ. eigenvalues --   -0.44444  -0.44292  -0.44218  -0.42571  -0.42012
 Alpha  occ. eigenvalues --   -0.41742  -0.41111  -0.40854  -0.40455  -0.40445
 Alpha  occ. eigenvalues --   -0.40193  -0.40003  -0.39104  -0.38302  -0.38241
 Alpha  occ. eigenvalues --   -0.38158  -0.37704  -0.37365  -0.36931  -0.36898
 Alpha  occ. eigenvalues --   -0.36441  -0.36164  -0.35087  -0.34914  -0.34486
 Alpha  occ. eigenvalues --   -0.33321  -0.32961  -0.32760  -0.32505  -0.31698
 Alpha  occ. eigenvalues --   -0.30285  -0.27843  -0.26695  -0.26369  -0.25794
 Alpha  occ. eigenvalues --   -0.25623  -0.25017  -0.24666  -0.24197  -0.23829
 Alpha  occ. eigenvalues --   -0.23776  -0.22947  -0.20892  -0.18087  -0.13212
 Alpha virt. eigenvalues --   -0.04682  -0.03335  -0.01368  -0.00441  -0.00034
 Alpha virt. eigenvalues --    0.00598   0.00878   0.00939   0.01307   0.01580
 Alpha virt. eigenvalues --    0.01942   0.02618   0.02648   0.03090   0.03186

 Mulliken charges:
               1
     1  C    0.358803
     2  C   -0.208622
     3  C    0.065310
     4  C    0.172362
     5  C    0.222169
     6  C   -0.502116
     7  C    0.210327
     8  C    0.139422
     9  C    0.440103
    10  C   -0.432026
    11  C    0.228018
    12  C    0.083350
    13  C   -0.520301
    14  C   -0.604933
    15  H    0.122768
    16  H    0.123176
    17  H    0.134443
    18  N   -0.110694
    19  N   -0.157906
    20  O   -0.527506
    21  O   -0.508064
    22  O   -0.515147
    23  O   -0.410418
    24  C   -0.187050
    25  H    0.160761
    26  H    0.160099
    27  H    0.167620
    28  C   -0.199795
    29  H    0.161311
    30  H    0.158941
    31  H    0.167904
    32  C    0.065351
    33  C   -0.439184
    34  S   -0.508441
    35  C   -0.299530
    36  H    0.141023
    37  C    0.609667
    38  O   -0.172126
    39  C    0.728595
    40  C   -0.233352
    41  C   -0.005444
    42  S   -0.241589
    43  H    0.171913
    44  H    0.158885
    45  H    0.159789
    46  C   -0.586232
    47  O   -0.170015
    48  C   -0.344261
    49  H    0.156747
    50  C   -0.250564
    51  H    0.183410
    52  H    0.155922
    53  H    0.170867
    54  H    0.156259
 Sum of Mulliken charges =  -2.00000

 Dipole moment (field-independent basis, Debye):
    X=            -27.2037    Y=             -0.9583    Z=              1.6675  Tot=             27.2716
 Quadrupole moment (field-independent basis, Debye-Ang):
   XX=           -379.8520   YY=           -295.7440   ZZ=           -226.8927
   XY=              9.9644   XZ=              4.7575   YZ=             30.1800

 Normal termination of Gaussian 16 at Thu Oct 28 13:04:50 2021.
