 Gaussian 16, Revision C.01,
 Gaussian 16:  ES64L-G16RevC.01  3-Jul-2019

 ---------------------------------------------------------------
 # opt=modredundant b3lyp/6-311+g(d,p) scrf=(pcm, solvent=water)
 ---------------------------------------------------------------

 ----------
 NDI_10.pdb
 ----------
 Symbolic Z-matrix:
 Charge = -2 Multiplicity = 1

 SCF Done:  E(RB3LYP) =  -2359.58253401     A.U. after   17 cycles
 SCF Done:  E(RB3LYP) =  -2359.59143954     A.U. after   17 cycles
 SCF Done:  E(RB3LYP) =  -2359.61152045     A.U. after   16 cycles
 SCF Done:  E(RB3LYP) =  -2359.61543980     A.U. after   14 cycles
 SCF Done:  E(RB3LYP) =  -2359.61625417     A.U. after   13 cycles
 SCF Done:  E(RB3LYP) =  -2359.61641333     A.U. after   12 cycles
 SCF Done:  E(RB3LYP) =  -2359.61698032     A.U. after   16 cycles
 SCF Done:  E(RB3LYP) =  -2359.61759270     A.U. after   15 cycles
 SCF Done:  E(RB3LYP) =  -2359.61981866     A.U. after   16 cycles
 SCF Done:  E(RB3LYP) =  -2359.62065263     A.U. after   17 cycles
 SCF Done:  E(RB3LYP) =  -2359.62219493     A.U. after   11 cycles
 SCF Done:  E(RB3LYP) =  -2359.62219667     A.U. after    9 cycles
 SCF Done:  E(RB3LYP) =  -2359.62219770     A.U. after   10 cycles
 SCF Done:  E(RB3LYP) =  -2359.62219840     A.U. after   10 cycles
 SCF Done:  E(RB3LYP) =  -2359.62219859     A.U. after   10 cycles
 SCF Done:  E(RB3LYP) =  -2359.62219873     A.U. after    8 cycles
 SCF Done:  E(RB3LYP) =  -2359.62219887     A.U. after    9 cycles
 SCF Done:  E(RB3LYP) =  -2359.62219887     A.U. after    9 cycles
 SCF Done:  E(RB3LYP) =  -2359.62219887     A.U. after    9 cycles
 SCF Done:  E(RB3LYP) =  -2359.62219890     A.U. after   10 cycles
 Optimization completed.
    -- Stationary point found.

                         Standard orientation:
 ---------------------------------------------------------------------
 Center     Atomic      Atomic             Coordinates (Angstroms)
 Number     Number       Type             X           Y           Z
 ---------------------------------------------------------------------
      1          6           0       -2.650934   -3.014373   -0.002585
      2          6           0       -2.318794   -1.620879   -0.085705
      3          6           0       -3.326061   -0.635652    0.079053
      4          6           0       -4.667879   -1.000848    0.328652
      5          6           0       -5.034213   -2.390551    0.421859
      6          6           0       -0.963779   -1.225029   -0.213781
      7          6           0       -2.957592    0.756872   -0.040804
      8          6           0       -1.605007    1.123814   -0.317704
      9          6           0       -0.558896    0.091048   -0.299813
     10          6           0       -1.369524    2.464361   -0.776425
     11          6           0       -3.699165    3.118121   -0.130082
     12          6           0       -3.990165    1.726585    0.067027
     13          6           0       -5.338065    1.326721    0.338617
     14          6           0       -5.670856    0.010897    0.469175
     15          1           0       -6.691008   -0.294938    0.664475
     16          1           0       -6.088510    2.103173    0.422163
     17          1           0       -0.228749   -2.017454   -0.143612
     18          7           0       -2.395875    3.412077   -0.543053
     19          7           0       -3.998045   -3.327467    0.247969
     20          8           0       -1.830098   -3.952865   -0.130878
     21          8           0       -6.201206   -2.789471    0.639192
     22          8           0       -4.536664    4.043030    0.009854
     23          8           0       -0.348108    2.866769   -1.379662
     24          6           0       -2.083807    4.802062   -0.882496
     25          1           0       -1.073596    5.036463   -0.553036
     26          1           0       -2.136743    4.965137   -1.962950
     27          1           0       -2.810308    5.441306   -0.390380
     28          6           0       -4.324719   -4.752934    0.333449
     29          1           0       -4.091985   -5.251426   -0.609287
     30          1           0       -3.737688   -5.226551    1.121758
     31          1           0       -5.384107   -4.841797    0.550371
     32          6           0        0.862505    0.371989   -0.077229
     33          6           0        1.491302    1.529292    0.328034
     34         16           0        2.072639   -0.881213   -0.379954
     35          6           0        2.899008    1.406527    0.450133
     36          1           0        0.955076    2.439152    0.533862
     37          6           0        3.411696    0.165176    0.105827
     38          8           0        3.749771    2.390878    0.865413
     39          6           0        4.782592   -0.277550    0.123407
     40          6           0        3.188033    3.652283    1.237558
     41          6           0        5.300633   -1.517504   -0.232953
     42         16           0        6.108226    0.768818    0.638247
     43          1           0        4.028353    4.275673    1.537558
     44          1           0        2.671403    4.117150    0.393405
     45          1           0        2.496555    3.541749    2.077567
     46          6           0        6.715176   -1.626256   -0.096221
     47          8           0        4.461437   -2.501896   -0.670558
     48          6           0        7.284054   -0.472425    0.363094
     49          1           0        7.282929   -2.515764   -0.328219
     50          6           0        5.038850   -3.759510   -1.028506
     51          1           0        8.327324   -0.274232    0.555080
     52          1           0        5.542210   -4.219497   -0.173119
     53          1           0        4.209533   -4.390094   -1.343159
     54          1           0        5.745513   -3.646973   -1.855951
 ---------------------------------------------------------------------

 The electronic state is 1-A.
 Alpha  occ. eigenvalues --  -88.87556 -88.86389 -19.15850 -19.15760 -19.07138
 Alpha  occ. eigenvalues --  -19.06963 -19.06656 -19.06266 -14.34837 -14.34361
 Alpha  occ. eigenvalues --  -10.25574 -10.25265 -10.25005 -10.24887 -10.23444
 Alpha  occ. eigenvalues --  -10.23128 -10.22246 -10.22117 -10.20946 -10.20152
 Alpha  occ. eigenvalues --  -10.20077 -10.19718 -10.18666 -10.18486 -10.18227
 Alpha  occ. eigenvalues --  -10.17987 -10.17960 -10.17708 -10.16281 -10.16044
 Alpha  occ. eigenvalues --  -10.15888 -10.15781 -10.15532 -10.15508 -10.15456
 Alpha  occ. eigenvalues --  -10.15341  -7.96120  -7.94972  -5.92429  -5.92046
 Alpha  occ. eigenvalues --   -5.91687  -5.91300  -5.90921  -5.90494  -1.07139
 Alpha  occ. eigenvalues --   -1.06980  -1.02789  -1.02352  -1.00377  -0.99872
 Alpha  occ. eigenvalues --   -0.91428  -0.90931  -0.88775  -0.87232  -0.86142
 Alpha  occ. eigenvalues --   -0.81387  -0.79184  -0.77345  -0.75468  -0.74303
 Alpha  occ. eigenvalues --   -0.73371  -0.72988  -0.71616  -0.71220  -0.69106
 Alpha  occ. eigenvalues --   -0.68868  -0.67997  -0.66192  -0.62795  -0.61846
 Alpha  occ. eigenvalues --   -0.61077  -0.60048  -0.58764  -0.57269  -0.54986
 Alpha  occ. eigenvalues --   -0.54827  -0.53662  -0.53253  -0.52939  -0.50846
 Alpha  occ. eigenvalues --   -0.49648  -0.48009  -0.47342  -0.47003  -0.46877
 Alpha  occ. eigenvalues --   -0.46707  -0.46235  -0.45810  -0.45518  -0.44991
 Alpha  occ. eigenvalues --   -0.44500  -0.44318  -0.44108  -0.42730  -0.41928
 Alpha  occ. eigenvalues --   -0.41773  -0.41061  -0.40782  -0.40612  -0.40453
 Alpha  occ. eigenvalues --   -0.40221  -0.40066  -0.39101  -0.38476  -0.38321
 Alpha  occ. eigenvalues --   -0.38211  -0.37775  -0.37537  -0.37144  -0.36917
 Alpha  occ. eigenvalues --   -0.36261  -0.36029  -0.35234  -0.34816  -0.34473
 Alpha  occ. eigenvalues --   -0.33507  -0.32952  -0.32882  -0.32651  -0.31370
 Alpha  occ. eigenvalues --   -0.30347  -0.28021  -0.26755  -0.26569  -0.25897
 Alpha  occ. eigenvalues --   -0.25758  -0.25033  -0.24685  -0.24433  -0.23989
 Alpha  occ. eigenvalues --   -0.23574  -0.22937  -0.20968  -0.17945  -0.13271
 Alpha virt. eigenvalues --   -0.05367  -0.03415  -0.01432  -0.00503  -0.00062
 Alpha virt. eigenvalues --    0.00633   0.00800   0.01040   0.01676   0.01955
 Alpha virt. eigenvalues --    0.02182   0.02542   0.02967   0.03170   0.03233

 Mulliken charges:
               1
     1  C    0.221551
     2  C   -0.076731
     3  C    0.207050
     4  C    0.202794
     5  C    0.189619
     6  C    0.053088
     7  C    0.256309
     8  C    0.386104
     9  C   -0.022240
    10  C   -0.878853
    11  C    0.229901
    12  C    0.127287
    13  C   -0.521859
    14  C   -0.609090
    15  H    0.123848
    16  H    0.124817
    17  H    0.129270
    18  N   -0.021183
    19  N   -0.150217
    20  O   -0.522743
    21  O   -0.498095
    22  O   -0.518655
    23  O   -0.462523
    24  C   -0.173590
    25  H    0.163006
    26  H    0.162444
    27  H    0.166020
    28  C   -0.198204
    29  H    0.160655
    30  H    0.161520
    31  H    0.167709
    32  C   -0.424740
    33  C   -0.257709
    34  S   -0.624295
    35  C   -0.254296
    36  H    0.157195
    37  C    0.634623
    38  O   -0.168002
    39  C    0.864018
    40  C   -0.236073
    41  C    0.036209
    42  S   -0.217715
    43  H    0.172435
    44  H    0.159151
    45  H    0.157642
    46  C   -0.619882
    47  O   -0.167821
    48  C   -0.363174
    49  H    0.156780
    50  C   -0.249272
    51  H    0.183930
    52  H    0.155649
    53  H    0.171169
    54  H    0.155169
 Sum of Mulliken charges =  -2.00000

 Dipole moment (field-independent basis, Debye):
    X=             26.3429    Y=             -0.8164    Z=              1.8229  Tot=             26.4185
 Quadrupole moment (field-independent basis, Debye-Ang):
   XX=           -373.1888   YY=           -286.8596   ZZ=           -238.4890
   XY=            -10.1298   XZ=              8.2755   YZ=             14.8385

 Normal termination of Gaussian 16 at Thu Oct 28 16:16:34 2021.
