 Gaussian 16, Revision C.01,
 Gaussian 16:  ES64L-G16RevC.01  3-Jul-2019

 ---------------------------------------------------------------
 # opt=modredundant b3lyp/6-311+g(d,p) scrf=(pcm, solvent=water)
 ---------------------------------------------------------------

 ------------
 NDI_-130.pdb
 ------------
 Symbolic Z-matrix:
 Charge = -2 Multiplicity = 1

 SCF Done:  E(RB3LYP) =  -2359.59753638     A.U. after   16 cycles
 SCF Done:  E(RB3LYP) =  -2359.61456566     A.U. after   16 cycles
 SCF Done:  E(RB3LYP) =  -2359.62197249     A.U. after   15 cycles
 SCF Done:  E(RB3LYP) =  -2359.62373522     A.U. after   15 cycles
 SCF Done:  E(RB3LYP) =  -2359.62431190     A.U. after   16 cycles
 SCF Done:  E(RB3LYP) =  -2359.62502562     A.U. after   13 cycles
 SCF Done:  E(RB3LYP) =  -2359.62521335     A.U. after   13 cycles
 SCF Done:  E(RB3LYP) =  -2359.62524808     A.U. after   13 cycles
 SCF Done:  E(RB3LYP) =  -2359.62526908     A.U. after   12 cycles
 SCF Done:  E(RB3LYP) =  -2359.62528277     A.U. after   11 cycles
 SCF Done:  E(RB3LYP) =  -2359.62528999     A.U. after   11 cycles
 SCF Done:  E(RB3LYP) =  -2359.62529919     A.U. after   11 cycles
 SCF Done:  E(RB3LYP) =  -2359.62529333     A.U. after   11 cycles
 SCF Done:  E(RB3LYP) =  -2359.62530060     A.U. after   10 cycles
 SCF Done:  E(RB3LYP) =  -2359.62530010     A.U. after   10 cycles
 SCF Done:  E(RB3LYP) =  -2359.62530086     A.U. after    9 cycles
 SCF Done:  E(RB3LYP) =  -2359.62530094     A.U. after    8 cycles
 SCF Done:  E(RB3LYP) =  -2359.62530099     A.U. after    8 cycles
 SCF Done:  E(RB3LYP) =  -2359.62530101     A.U. after    8 cycles
 SCF Done:  E(RB3LYP) =  -2359.62530102     A.U. after    7 cycles
 Optimization completed.
    -- Stationary point found.

                         Standard orientation:
 ---------------------------------------------------------------------
 Center     Atomic      Atomic             Coordinates (Angstroms)
 Number     Number       Type             X           Y           Z
 ---------------------------------------------------------------------
      1          6           0       -3.456586   -2.707169    0.379195
      2          6           0       -2.755473   -1.493617    0.079936
      3          6           0       -3.430382   -0.248064    0.138807
      4          6           0       -4.798581   -0.174956    0.497569
      5          6           0       -5.526761   -1.371557    0.815456
      6          6           0       -1.359581   -1.528250   -0.207383
      7          6           0       -2.704697    0.958254   -0.193527
      8          6           0       -1.329360    0.884810   -0.565817
      9          6           0       -0.640032   -0.396028   -0.498560
     10          6           0       -0.703382    2.060865   -1.104388
     11          6           0       -2.743492    3.407663   -0.549733
     12          6           0       -3.405170    2.192871   -0.172098
     13          6           0       -4.787934    2.234074    0.205637
     14          6           0       -5.461623    1.095336    0.531862
     15          1           0       -6.507719    1.123027    0.810294
     16          1           0       -5.281867    3.197880    0.214840
     17          1           0       -0.849494   -2.479309   -0.120736
     18          7           0       -1.421191    3.272753   -0.997830
     19          7           0       -4.812382   -2.582603    0.728445
     20          8           0       -2.946241   -3.853975    0.352543
     21          8           0       -6.735386   -1.388041    1.152396
     22          8           0       -3.281329    4.542356   -0.520813
     23          8           0        0.413256    2.099107   -1.669685
     24          6           0       -0.729906    4.471855   -1.476437
     25          1           0        0.268412    4.519302   -1.042861
     26          1           0       -0.626209    4.451893   -2.564416
     27          1           0       -1.316698    5.336275   -1.183141
     28          6           0       -5.518821   -3.829650    1.030125
     29          1           0       -5.439489   -4.517740    0.187579
     30          1           0       -5.080389   -4.313523    1.905423
     31          1           0       -6.558762   -3.587165    1.222965
     32          6           0        0.823140   -0.550164   -0.599619
     33          6           0        1.524291   -1.406200   -1.411142
     34         16           0        1.900826    0.244760    0.528904
     35          6           0        2.924420   -1.412051   -1.152553
     36          1           0        1.046308   -1.996422   -2.179591
     37          6           0        3.325036   -0.569545   -0.127326
     38          8           0        3.857583   -2.149551   -1.822839
     39          6           0        4.660699   -0.333847    0.367732
     40          6           0        3.408124   -2.993562   -2.886266
     41          6           0        5.065201    0.492634    1.408068
     42         16           0        6.080235   -1.119784   -0.325130
     43          1           0        4.299398   -3.480407   -3.277678
     44          1           0        2.710270   -3.751139   -2.518692
     45          1           0        2.933886   -2.408126   -3.678997
     46          6           0        6.471709    0.498050    1.642652
     47          8           0        4.135079    1.208168    2.105366
     48          6           0        7.144365   -0.324046    0.784280
     49          1           0        6.959680    1.081189    2.410171
     50          6           0        4.596693    2.048825    3.165657
     51          1           0        8.205802   -0.513271    0.737748
     52          1           0        5.277229    2.818362    2.789910
     53          1           0        3.708190    2.521492    3.579841
     54          1           0        5.094412    1.463323    3.944145
 ---------------------------------------------------------------------

 The electronic state is 1-A.
 Alpha  occ. eigenvalues --  -88.87628 -88.86480 -19.15902 -19.15873 -19.06773
 Alpha  occ. eigenvalues --  -19.06692 -19.06592 -19.06301 -14.34650 -14.34381
 Alpha  occ. eigenvalues --  -10.25208 -10.24985 -10.24971 -10.24901 -10.23530
 Alpha  occ. eigenvalues --  -10.23274 -10.22273 -10.22211 -10.20962 -10.20238
 Alpha  occ. eigenvalues --  -10.20212 -10.19804 -10.18555 -10.18427 -10.18135
 Alpha  occ. eigenvalues --  -10.18007 -10.17956 -10.17423 -10.16808 -10.15888
 Alpha  occ. eigenvalues --  -10.15738 -10.15491 -10.15383 -10.15359 -10.15317
 Alpha  occ. eigenvalues --  -10.15244  -7.96192  -7.95058  -5.92500  -5.92117
 Alpha  occ. eigenvalues --   -5.91762  -5.91380  -5.90999  -5.90594  -1.07203
 Alpha  occ. eigenvalues --   -1.07089  -1.02441  -1.02302  -0.99979  -0.99829
 Alpha  occ. eigenvalues --   -0.91158  -0.90899  -0.88889  -0.87336  -0.86106
 Alpha  occ. eigenvalues --   -0.81295  -0.79067  -0.77425  -0.75436  -0.74189
 Alpha  occ. eigenvalues --   -0.73694  -0.72709  -0.71642  -0.71218  -0.69159
 Alpha  occ. eigenvalues --   -0.68748  -0.67954  -0.66314  -0.62554  -0.61792
 Alpha  occ. eigenvalues --   -0.60956  -0.59820  -0.58957  -0.57271  -0.55040
 Alpha  occ. eigenvalues --   -0.54899  -0.53531  -0.53390  -0.52850  -0.50598
 Alpha  occ. eigenvalues --   -0.49534  -0.48115  -0.47391  -0.47109  -0.47072
 Alpha  occ. eigenvalues --   -0.46617  -0.46092  -0.45799  -0.45458  -0.44835
 Alpha  occ. eigenvalues --   -0.44456  -0.44344  -0.44164  -0.42739  -0.42216
 Alpha  occ. eigenvalues --   -0.41469  -0.41167  -0.40909  -0.40511  -0.40391
 Alpha  occ. eigenvalues --   -0.40185  -0.39993  -0.39224  -0.38303  -0.38232
 Alpha  occ. eigenvalues --   -0.37910  -0.37655  -0.37434  -0.36931  -0.36828
 Alpha  occ. eigenvalues --   -0.36391  -0.36228  -0.35099  -0.34892  -0.34485
 Alpha  occ. eigenvalues --   -0.33323  -0.33022  -0.32726  -0.32386  -0.31698
 Alpha  occ. eigenvalues --   -0.30092  -0.27790  -0.26715  -0.26362  -0.25785
 Alpha  occ. eigenvalues --   -0.25616  -0.25037  -0.24515  -0.24156  -0.23903
 Alpha  occ. eigenvalues --   -0.23674  -0.23188  -0.20875  -0.18177  -0.13215
 Alpha virt. eigenvalues --   -0.04535  -0.03408  -0.01231  -0.00463  -0.00050
 Alpha virt. eigenvalues --    0.00556   0.00768   0.00958   0.01148   0.01528
 Alpha virt. eigenvalues --    0.01909   0.02591   0.02753   0.03087   0.03163

 Mulliken charges:
               1
     1  C    0.341789
     2  C   -0.136954
     3  C    0.129260
     4  C    0.148186
     5  C    0.225773
     6  C   -0.364011
     7  C    0.208223
     8  C   -0.023962
     9  C    0.262012
    10  C   -0.428910
    11  C    0.271444
    12  C    0.057374
    13  C   -0.508684
    14  C   -0.580651
    15  H    0.122412
    16  H    0.122974
    17  H    0.122236
    18  N   -0.087508
    19  N   -0.157667
    20  O   -0.527634
    21  O   -0.511382
    22  O   -0.517268
    23  O   -0.447058
    24  C   -0.178184
    25  H    0.162810
    26  H    0.162177
    27  H    0.168380
    28  C   -0.199536
    29  H    0.158881
    30  H    0.161302
    31  H    0.168553
    32  C    0.172157
    33  C   -0.534615
    34  S   -0.532004
    35  C   -0.141976
    36  H    0.141966
    37  C    0.428896
    38  O   -0.170324
    39  C    0.815589
    40  C   -0.234543
    41  C    0.006823
    42  S   -0.247550
    43  H    0.172086
    44  H    0.160278
    45  H    0.161013
    46  C   -0.577879
    47  O   -0.170043
    48  C   -0.348827
    49  H    0.156920
    50  C   -0.249222
    51  H    0.183645
    52  H    0.156494
    53  H    0.171045
    54  H    0.155692
 Sum of Mulliken charges =  -2.00000

 Dipole moment (field-independent basis, Debye):
    X=             27.0293    Y=             -3.1166    Z=              1.2485  Tot=             27.2370
 Quadrupole moment (field-independent basis, Debye-Ang):
   XX=           -374.3182   YY=           -300.0922   ZZ=           -224.6458
   XY=              9.9795   XZ=             25.6660   YZ=             27.3261

 Normal termination of Gaussian 16 at Thu Oct 28 10:27:29 2021.
