 Gaussian 16, Revision C.01,
 Gaussian 16:  ES64L-G16RevC.01  3-Jul-2019

 ---------------------------------------------------------------
 # opt=modredundant b3lyp/6-311+g(d,p) scrf=(pcm, solvent=water)
 ---------------------------------------------------------------

 -----------
 NDI_145.pdb
 -----------
 Symbolic Z-matrix:
 Charge = -2 Multiplicity = 1

 SCF Done:  E(RB3LYP) =  -2359.58846563     A.U. after   16 cycles
 SCF Done:  E(RB3LYP) =  -2359.60586306     A.U. after   17 cycles
 SCF Done:  E(RB3LYP) =  -2359.61659899     A.U. after   16 cycles
 SCF Done:  E(RB3LYP) =  -2359.62171762     A.U. after   16 cycles
 SCF Done:  E(RB3LYP) =  -2359.62345103     A.U. after   16 cycles
 SCF Done:  E(RB3LYP) =  -2359.62433162     A.U. after   13 cycles
 SCF Done:  E(RB3LYP) =  -2359.62467184     A.U. after   13 cycles
 SCF Done:  E(RB3LYP) =  -2359.62476335     A.U. after   12 cycles
 SCF Done:  E(RB3LYP) =  -2359.62479144     A.U. after   12 cycles
 SCF Done:  E(RB3LYP) =  -2359.62482256     A.U. after   11 cycles
 SCF Done:  E(RB3LYP) =  -2359.62491896     A.U. after   11 cycles
 SCF Done:  E(RB3LYP) =  -2359.62492669     A.U. after   11 cycles
 SCF Done:  E(RB3LYP) =  -2359.62492932     A.U. after   10 cycles
 SCF Done:  E(RB3LYP) =  -2359.62492994     A.U. after    9 cycles
 SCF Done:  E(RB3LYP) =  -2359.62493018     A.U. after    8 cycles
 SCF Done:  E(RB3LYP) =  -2359.62493034     A.U. after    8 cycles
 SCF Done:  E(RB3LYP) =  -2359.62493041     A.U. after    8 cycles
 SCF Done:  E(RB3LYP) =  -2359.62493051     A.U. after    8 cycles
 SCF Done:  E(RB3LYP) =  -2359.62493055     A.U. after    8 cycles
 SCF Done:  E(RB3LYP) =  -2359.62493059     A.U. after    8 cycles
 Optimization completed.
    -- Stationary point found.

                         Standard orientation:
 ---------------------------------------------------------------------
 Center     Atomic      Atomic             Coordinates (Angstroms)
 Number     Number       Type             X           Y           Z
 ---------------------------------------------------------------------
      1          6           0        3.488330   -2.687856    0.341387
      2          6           0        2.770887   -1.484524    0.036966
      3          6           0        3.417314   -0.225842    0.136083
      4          6           0        4.771762   -0.129426    0.535259
      5          6           0        5.516002   -1.316294    0.857695
      6          6           0        1.383390   -1.543445   -0.276939
      7          6           0        2.674614    0.968947   -0.198201
      8          6           0        1.312784    0.871217   -0.611933
      9          6           0        0.643234   -0.423202   -0.572859
     10          6           0        0.696489    2.031432   -1.193579
     11          6           0        2.673766    3.421407   -0.533412
     12          6           0        3.348904    2.216807   -0.144103
     13          6           0        4.718674    2.281916    0.273253
     14          6           0        5.406869    1.153113    0.605408
     15          1           0        6.444072    1.198439    0.913208
     16          1           0        5.192404    3.255293    0.305750
     17          1           0        0.891309   -2.503682   -0.190963
     18          7           0        1.375261    3.261095   -1.036803
     19          7           0        4.830536   -2.540320    0.732325
     20          8           0        3.003267   -3.843880    0.285485
     21          8           0        6.713469   -1.311764    1.230201
     22          8           0        3.183389    4.567354   -0.472128
     23          8           0       -0.377581    2.041410   -1.837159
     24          6           0        0.680254    4.449465   -1.536197
     25          1           0        0.689275    4.478104   -2.629383
     26          1           0       -0.357364    4.430249   -1.206650
     27          1           0        1.191305    5.325488   -1.149639
     28          6           0        5.552834   -3.776914    1.039853
     29          1           0        5.102440   -4.277137    1.899808
     30          1           0        5.506825   -4.458101    0.189330
     31          1           0        6.582839   -3.516961    1.260885
     32          6           0       -0.815473   -0.598179   -0.642847
     33          6           0       -1.505001   -1.622983   -1.249968
     34         16           0       -1.901739    0.363774    0.339966
     35          6           0       -2.894535   -1.627457   -0.953108
     36          1           0       -1.023162   -2.338430   -1.900547
     37          6           0       -3.305220   -0.616916   -0.096187
     38          8           0       -3.813878   -2.509896   -1.443846
     39          6           0       -4.638649   -0.329711    0.375073
     40          6           0       -3.356536   -3.524134   -2.342037
     41          6           0       -5.053348    0.669545    1.246614
     42         16           0       -6.042492   -1.280273   -0.115269
     43          1           0       -4.237129   -4.105236   -2.609439
     44          1           0       -2.922014   -3.083528   -3.243798
     45          1           0       -2.622614   -4.175420   -1.859005
     46          6           0       -6.454151    0.675432    1.512221
     47          8           0       -4.136671    1.536643    1.768018
     48          6           0       -7.113313   -0.318866    0.847248
     49          1           0       -6.947989    1.380668    2.164985
     50          6           0       -4.605997    2.539163    2.672574
     51          1           0       -8.167798   -0.547527    0.866216
     52          1           0       -5.061227    2.087627    3.558866
     53          1           0       -3.727610    3.110242    2.967056
     54          1           0       -5.325724    3.203367    2.185345
 ---------------------------------------------------------------------

 The electronic state is 1-A.
 Alpha  occ. eigenvalues --  -88.87588 -88.86407 -19.15866 -19.15831 -19.06882
 Alpha  occ. eigenvalues --  -19.06767 -19.06639 -19.06333 -14.34702 -14.34389
 Alpha  occ. eigenvalues --  -10.25317 -10.25065 -10.25012 -10.24914 -10.23477
 Alpha  occ. eigenvalues --  -10.23211 -10.22253 -10.22187 -10.20934 -10.20219
 Alpha  occ. eigenvalues --  -10.20128 -10.19758 -10.18587 -10.18462 -10.18153
 Alpha  occ. eigenvalues --  -10.17978 -10.17971 -10.17471 -10.16720 -10.15834
 Alpha  occ. eigenvalues --  -10.15829 -10.15582 -10.15433 -10.15413 -10.15369
 Alpha  occ. eigenvalues --  -10.15288  -7.96152  -7.94981  -5.92460  -5.92078
 Alpha  occ. eigenvalues --   -5.91721  -5.91303  -5.90922  -5.90515  -1.07165
 Alpha  occ. eigenvalues --   -1.07048  -1.02539  -1.02337  -1.00093  -0.99872
 Alpha  occ. eigenvalues --   -0.91232  -0.90935  -0.88839  -0.87312  -0.86122
 Alpha  occ. eigenvalues --   -0.81336  -0.79107  -0.77409  -0.75403  -0.74172
 Alpha  occ. eigenvalues --   -0.73712  -0.72737  -0.71641  -0.71198  -0.69146
 Alpha  occ. eigenvalues --   -0.68764  -0.67966  -0.66301  -0.62594  -0.61830
 Alpha  occ. eigenvalues --   -0.60984  -0.59883  -0.58889  -0.57255  -0.55030
 Alpha  occ. eigenvalues --   -0.54871  -0.53583  -0.53344  -0.52874  -0.50637
 Alpha  occ. eigenvalues --   -0.49630  -0.47950  -0.47365  -0.47105  -0.47047
 Alpha  occ. eigenvalues --   -0.46603  -0.46140  -0.45836  -0.45469  -0.44869
 Alpha  occ. eigenvalues --   -0.44466  -0.44332  -0.44151  -0.42812  -0.42232
 Alpha  occ. eigenvalues --   -0.41346  -0.41215  -0.40908  -0.40501  -0.40414
 Alpha  occ. eigenvalues --   -0.40222  -0.40015  -0.39229  -0.38361  -0.38263
 Alpha  occ. eigenvalues --   -0.37952  -0.37612  -0.37466  -0.36990  -0.36897
 Alpha  occ. eigenvalues --   -0.36314  -0.36218  -0.35098  -0.34951  -0.34482
 Alpha  occ. eigenvalues --   -0.33334  -0.32998  -0.32763  -0.32311  -0.31774
 Alpha  occ. eigenvalues --   -0.30154  -0.27824  -0.26745  -0.26442  -0.25822
 Alpha  occ. eigenvalues --   -0.25681  -0.25054  -0.24573  -0.24241  -0.23808
 Alpha  occ. eigenvalues --   -0.23759  -0.23051  -0.20921  -0.18083  -0.13233
 Alpha virt. eigenvalues --   -0.04773  -0.03382  -0.01341  -0.00509  -0.00061
 Alpha virt. eigenvalues --    0.00583   0.00919   0.00999   0.01216   0.01599
 Alpha virt. eigenvalues --    0.02053   0.02598   0.02774   0.03077   0.03256

 Mulliken charges:
               1
     1  C    0.327275
     2  C   -0.142733
     3  C    0.106811
     4  C    0.174339
     5  C    0.206509
     6  C   -0.249831
     7  C    0.183355
     8  C    0.049012
     9  C    0.274049
    10  C   -0.485672
    11  C    0.283357
    12  C    0.032793
    13  C   -0.512578
    14  C   -0.551235
    15  H    0.122986
    16  H    0.123328
    17  H    0.126109
    18  N   -0.057591
    19  N   -0.157768
    20  O   -0.525444
    21  O   -0.507401
    22  O   -0.517027
    23  O   -0.458580
    24  C   -0.183668
    25  H    0.163188
    26  H    0.164009
    27  H    0.167933
    28  C   -0.197301
    29  H    0.161803
    30  H    0.159009
    31  H    0.168283
    32  C    0.108765
    33  C   -0.620517
    34  S   -0.663634
    35  C   -0.104061
    36  H    0.146676
    37  C    0.564386
    38  O   -0.172931
    39  C    0.819817
    40  C   -0.234645
    41  C   -0.001491
    42  S   -0.239593
    43  H    0.172170
    44  H    0.159831
    45  H    0.160218
    46  C   -0.609144
    47  O   -0.167285
    48  C   -0.339250
    49  H    0.156681
    50  C   -0.250046
    51  H    0.183616
    52  H    0.155747
    53  H    0.171276
    54  H    0.156095
 Sum of Mulliken charges =  -2.00000

 Dipole moment (field-independent basis, Debye):
    X=            -26.4010    Y=             -3.2957    Z=              1.6268  Tot=             26.6556
 Quadrupole moment (field-independent basis, Debye-Ang):
   XX=           -371.2004   YY=           -294.0090   ZZ=           -232.0990
   XY=            -11.9987   XZ=            -26.1112   YZ=             26.2577

 Normal termination of Gaussian 16 at Thu Oct 28 13:22:51 2021.
