 Gaussian 16, Revision C.01,
 Gaussian 16:  ES64L-G16RevC.01  3-Jul-2019

 ---------------------------------------------------------------
 # opt=modredundant b3lyp/6-311+g(d,p) scrf=(pcm, solvent=water)
 ---------------------------------------------------------------

 -----------
 NDI_165.pdb
 -----------
 Symbolic Z-matrix:
 Charge = -2 Multiplicity = 1

 SCF Done:  E(RB3LYP) =  -2359.56401970     A.U. after   17 cycles
 SCF Done:  E(RB3LYP) =  -2359.59593618     A.U. after   17 cycles
 SCF Done:  E(RB3LYP) =  -2359.61157546     A.U. after   16 cycles
 SCF Done:  E(RB3LYP) =  -2359.61708004     A.U. after   15 cycles
 SCF Done:  E(RB3LYP) =  -2359.62020507     A.U. after   16 cycles
 SCF Done:  E(RB3LYP) =  -2359.62138050     A.U. after   16 cycles
 SCF Done:  E(RB3LYP) =  -2359.62177647     A.U. after   12 cycles
 SCF Done:  E(RB3LYP) =  -2359.62216191     A.U. after   13 cycles
 SCF Done:  E(RB3LYP) =  -2359.62232873     A.U. after   13 cycles
 SCF Done:  E(RB3LYP) =  -2359.62242521     A.U. after   12 cycles
 SCF Done:  E(RB3LYP) =  -2359.62256249     A.U. after   11 cycles
 SCF Done:  E(RB3LYP) =  -2359.62256485     A.U. after   10 cycles
 SCF Done:  E(RB3LYP) =  -2359.62256583     A.U. after   10 cycles
 SCF Done:  E(RB3LYP) =  -2359.62256739     A.U. after   11 cycles
 SCF Done:  E(RB3LYP) =  -2359.62256813     A.U. after   10 cycles
 SCF Done:  E(RB3LYP) =  -2359.62256838     A.U. after    9 cycles
 SCF Done:  E(RB3LYP) =  -2359.62256851     A.U. after    9 cycles
 SCF Done:  E(RB3LYP) =  -2359.62256863     A.U. after    9 cycles
 SCF Done:  E(RB3LYP) =  -2359.62256865     A.U. after    9 cycles
 SCF Done:  E(RB3LYP) =  -2359.62256860     A.U. after    8 cycles
 Optimization completed.
    -- Stationary point found.

                         Standard orientation:
 ---------------------------------------------------------------------
 Center     Atomic      Atomic             Coordinates (Angstroms)
 Number     Number       Type             X           Y           Z
 ---------------------------------------------------------------------
      1          6           0       -3.563067   -2.651397   -0.179711
      2          6           0       -2.810317   -1.456188    0.072152
      3          6           0       -3.406940   -0.184369   -0.125869
      4          6           0       -4.743235   -0.065240   -0.571857
      5          6           0       -5.524294   -1.244513   -0.836134
      6          6           0       -1.433873   -1.544327    0.412659
      7          6           0       -2.627584    0.998892    0.158004
      8          6           0       -1.284534    0.877576    0.624309
      9          6           0       -0.650288   -0.439871    0.668297
     10          6           0       -0.672475    2.041545    1.201155
     11          6           0       -2.553035    3.465202    0.361885
     12          6           0       -3.255035    2.263874    0.009624
     13          6           0       -4.605152    2.352607   -0.460914
     14          6           0       -5.326146    1.231172   -0.747082
     15          1           0       -6.349856    1.294324   -1.094310
     16          1           0       -5.039219    3.338984   -0.568776
     17          1           0       -0.983357   -2.526700    0.367849
     18          7           0       -1.290708    3.286563    0.941424
     19          7           0       -4.889897   -2.481410   -0.612314
     20          8           0       -3.121637   -3.817162   -0.043076
     21          8           0       -6.710448   -1.219948   -1.239422
     22          8           0       -3.014075    4.623006    0.210968
     23          8           0        0.348030    2.042757    1.927365
     24          6           0       -0.584824    4.475270    1.424788
     25          1           0       -0.701117    4.588803    2.506507
     26          1           0        0.477002    4.380879    1.205660
     27          1           0       -1.006389    5.343345    0.927562
     28          6           0       -5.652035   -3.708460   -0.855733
     29          1           0       -5.217878   -4.269327   -1.686305
     30          1           0       -5.628938   -4.342757    0.030829
     31          1           0       -6.672560   -3.427655   -1.094407
     32          6           0        0.802427   -0.662171    0.705808
     33          6           0        1.455377   -1.836701    1.033372
     34         16           0        1.927934    0.442369   -0.062853
     35          6           0        2.829171   -1.844996    0.692048
     36          1           0        0.955713   -2.664153    1.515314
     37          6           0        3.277385   -0.687522    0.068768
     38          8           0        3.708997   -2.860879    0.937805
     39          6           0        4.615502   -0.363284   -0.360356
     40          6           0        3.209934   -4.040485    1.572456
     41          6           0        5.068887    0.785123   -0.998740
     42         16           0        5.977188   -1.462856   -0.128331
     43          1           0        4.061973   -4.710760    1.669807
     44          1           0        2.808616   -3.813871    2.564359
     45          1           0        2.437671   -4.518183    0.962697
     46          6           0        6.464219    0.785359   -1.290638
     47          8           0        4.189985    1.787781   -1.294130
     48          6           0        7.082034   -0.361518   -0.879934
     49          1           0        6.983767    1.594682   -1.783052
     50          6           0        4.702614    2.953714   -1.942751
     51          1           0        8.122937   -0.629256   -0.976878
     52          1           0        5.134172    2.705324   -2.916800
     53          1           0        3.850901    3.616675   -2.082355
     54          1           0        5.453743    3.451188   -1.322255
 ---------------------------------------------------------------------

 The electronic state is 1-A.
 Alpha  occ. eigenvalues --  -88.87525 -88.86337 -19.15818 -19.15760 -19.07039
 Alpha  occ. eigenvalues --  -19.06891 -19.06676 -19.06352 -14.34785 -14.34397
 Alpha  occ. eigenvalues --  -10.25469 -10.25196 -10.25039 -10.24913 -10.23405
 Alpha  occ. eigenvalues --  -10.23101 -10.22227 -10.22154 -10.20893 -10.20252
 Alpha  occ. eigenvalues --  -10.19975 -10.19691 -10.18636 -10.18491 -10.18184
 Alpha  occ. eigenvalues --  -10.17975 -10.17936 -10.17621 -10.16595 -10.15947
 Alpha  occ. eigenvalues --  -10.15812 -10.15705 -10.15499 -10.15489 -10.15433
 Alpha  occ. eigenvalues --  -10.15335  -7.96090  -7.94901  -5.92398  -5.92016
 Alpha  occ. eigenvalues --   -5.91658  -5.91222  -5.90836  -5.90439  -1.07107
 Alpha  occ. eigenvalues --   -1.06979  -1.02690  -1.02374  -1.00265  -0.99911
 Alpha  occ. eigenvalues --   -0.91348  -0.90972  -0.88767  -0.87266  -0.86144
 Alpha  occ. eigenvalues --   -0.81371  -0.79157  -0.77374  -0.75354  -0.74154
 Alpha  occ. eigenvalues --   -0.73732  -0.72772  -0.71651  -0.71159  -0.69135
 Alpha  occ. eigenvalues --   -0.68776  -0.67984  -0.66282  -0.62652  -0.61882
 Alpha  occ. eigenvalues --   -0.61011  -0.59963  -0.58790  -0.57240  -0.55017
 Alpha  occ. eigenvalues --   -0.54828  -0.53686  -0.53281  -0.52908  -0.50695
 Alpha  occ. eigenvalues --   -0.49751  -0.47745  -0.47326  -0.47104  -0.47010
 Alpha  occ. eigenvalues --   -0.46546  -0.46216  -0.45889  -0.45487  -0.44917
 Alpha  occ. eigenvalues --   -0.44490  -0.44308  -0.44161  -0.42904  -0.42254
 Alpha  occ. eigenvalues --   -0.41292  -0.41152  -0.40913  -0.40547  -0.40393
 Alpha  occ. eigenvalues --   -0.40226  -0.40063  -0.39258  -0.38430  -0.38312
 Alpha  occ. eigenvalues --   -0.38012  -0.37568  -0.37505  -0.37077  -0.37007
 Alpha  occ. eigenvalues --   -0.36248  -0.36130  -0.35230  -0.34876  -0.34456
 Alpha  occ. eigenvalues --   -0.33434  -0.32966  -0.32751  -0.32131  -0.31825
 Alpha  occ. eigenvalues --   -0.30250  -0.27886  -0.26779  -0.26555  -0.25865
 Alpha  occ. eigenvalues --   -0.25767  -0.25086  -0.24606  -0.24375  -0.23941
 Alpha  occ. eigenvalues --   -0.23603  -0.22889  -0.20973  -0.17952  -0.13242
 Alpha virt. eigenvalues --   -0.05134  -0.03344  -0.01503  -0.00545  -0.00081
 Alpha virt. eigenvalues --    0.00613   0.00840   0.01077   0.01567   0.01724
 Alpha virt. eigenvalues --    0.02146   0.02676   0.02760   0.03112   0.03345

 Mulliken charges:
               1
     1  C    0.310330
     2  C   -0.122733
     3  C    0.081940
     4  C    0.209840
     5  C    0.177547
     6  C   -0.010560
     7  C    0.116524
     8  C    0.214785
     9  C    0.219437
    10  C   -0.622945
    11  C    0.306130
    12  C    0.043611
    13  C   -0.523371
    14  C   -0.557471
    15  H    0.123640
    16  H    0.124159
    17  H    0.127615
    18  N   -0.011925
    19  N   -0.157486
    20  O   -0.521554
    21  O   -0.502136
    22  O   -0.515879
    23  O   -0.459005
    24  C   -0.194349
    25  H    0.163316
    26  H    0.165380
    27  H    0.167390
    28  C   -0.196375
    29  H    0.162542
    30  H    0.159221
    31  H    0.167621
    32  C    0.006963
    33  C   -0.575640
    34  S   -0.734408
    35  C   -0.302597
    36  H    0.143757
    37  C    0.675353
    38  O   -0.170872
    39  C    0.815484
    40  C   -0.235406
    41  C   -0.024408
    42  S   -0.223872
    43  H    0.172355
    44  H    0.158186
    45  H    0.158956
    46  C   -0.580526
    47  O   -0.164324
    48  C   -0.336398
    49  H    0.156223
    50  C   -0.250172
    51  H    0.183403
    52  H    0.155183
    53  H    0.171147
    54  H    0.156372
 Sum of Mulliken charges =  -2.00000

 Dipole moment (field-independent basis, Debye):
    X=             25.5289    Y=             -3.7083    Z=             -1.8920  Tot=             25.8661
 Quadrupole moment (field-independent basis, Debye-Ang):
   XX=           -367.2600   YY=           -288.1008   ZZ=           -239.8867
   XY=             14.1978   XZ=            -26.2289   YZ=            -18.8893

 Normal termination of Gaussian 16 at Thu Oct 28 16:00:14 2021.
