 Gaussian 16, Revision C.01,
 Gaussian 16:  ES64L-G16RevC.01  3-Jul-2019

 ---------------------------------------------------------------
 # opt=modredundant b3lyp/6-311+g(d,p) scrf=(pcm, solvent=water)
 ---------------------------------------------------------------

 -----------
 NDI_135.pdb
 -----------
 Symbolic Z-matrix:
 Charge = -2 Multiplicity = 1

 SCF Done:  E(RB3LYP) =  -2359.59704191     A.U. after   16 cycles
 SCF Done:  E(RB3LYP) =  -2359.61323321     A.U. after   16 cycles
 SCF Done:  E(RB3LYP) =  -2359.62176749     A.U. after   15 cycles
 SCF Done:  E(RB3LYP) =  -2359.62415468     A.U. after   15 cycles
 SCF Done:  E(RB3LYP) =  -2359.62437598     A.U. after   15 cycles
 SCF Done:  E(RB3LYP) =  -2359.62506308     A.U. after   12 cycles
 SCF Done:  E(RB3LYP) =  -2359.62514906     A.U. after   12 cycles
 SCF Done:  E(RB3LYP) =  -2359.62516775     A.U. after   11 cycles
 SCF Done:  E(RB3LYP) =  -2359.62519006     A.U. after   11 cycles
 SCF Done:  E(RB3LYP) =  -2359.62522837     A.U. after   12 cycles
 SCF Done:  E(RB3LYP) =  -2359.62524390     A.U. after   10 cycles
 SCF Done:  E(RB3LYP) =  -2359.62526310     A.U. after   11 cycles
 SCF Done:  E(RB3LYP) =  -2359.62528794     A.U. after   12 cycles
 SCF Done:  E(RB3LYP) =  -2359.62529549     A.U. after   11 cycles
 SCF Done:  E(RB3LYP) =  -2359.62529697     A.U. after   10 cycles
 SCF Done:  E(RB3LYP) =  -2359.62529872     A.U. after   10 cycles
 SCF Done:  E(RB3LYP) =  -2359.62529943     A.U. after   10 cycles
 SCF Done:  E(RB3LYP) =  -2359.62529975     A.U. after    8 cycles
 SCF Done:  E(RB3LYP) =  -2359.62530004     A.U. after    9 cycles
 Optimization completed.
    -- Stationary point found.

                         Standard orientation:
 ---------------------------------------------------------------------
 Center     Atomic      Atomic             Coordinates (Angstroms)
 Number     Number       Type             X           Y           Z
 ---------------------------------------------------------------------
      1          6           0        3.473737   -2.696466    0.375644
      2          6           0        2.764090   -1.489387    0.069689
      3          6           0        3.426673   -0.237376    0.136363
      4          6           0        4.790345   -0.151421    0.507953
      5          6           0        5.526688   -1.341540    0.833083
      6          6           0        1.370501   -1.536622   -0.224450
      7          6           0        2.692549    0.962007   -0.201880
      8          6           0        1.321912    0.875196   -0.587943
      9          6           0        0.641891   -0.410972   -0.521607
     10          6           0        0.696698    2.040876   -1.149348
     11          6           0        2.711173    3.411010   -0.560681
     12          6           0        3.381144    2.202998   -0.174926
     13          6           0        4.759814    2.257288    0.215182
     14          6           0        5.441179    1.124860    0.548037
     15          1           0        6.484561    1.162183    0.835344
     16          1           0        5.244893    3.225533    0.227512
     17          1           0        0.867798   -2.490949   -0.131770
     18          7           0        1.397443    3.261690   -1.028539
     19          7           0        4.824700   -2.559175    0.738813
     20          8           0        2.974708   -3.847868    0.343758
     21          8           0        6.731479   -1.346320    1.183025
     22          8           0        3.235903    4.551460   -0.523618
     23          8           0       -0.404177    2.062805   -1.745662
     24          6           0        0.701330    4.453348   -1.518572
     25          1           0        0.635192    4.444730   -2.609762
     26          1           0       -0.311644    4.477092   -1.118739
     27          1           0        1.261664    5.325173   -1.196610
     28          6           0        5.538939   -3.799615    1.049435
     29          1           0        5.096694   -4.285305    1.921844
     30          1           0        5.472866   -4.490075    0.207712
     31          1           0        6.574963   -3.547959    1.251319
     32          6           0       -0.819586   -0.573632   -0.608118
     33          6           0       -1.518364   -1.495404   -1.348747
     34         16           0       -1.898293    0.287851    0.470217
     35          6           0       -2.915188   -1.499252   -1.077165
     36          1           0       -1.039975   -2.135189   -2.076180
     37          6           0       -3.317510   -0.589953   -0.111050
     38          8           0       -3.845048   -2.293489   -1.684452
     39          6           0       -4.652536   -0.328854    0.372182
     40          6           0       -3.396938   -3.192762   -2.702151
     41          6           0       -5.056164    0.550759    1.368452
     42         16           0       -6.073348   -1.146769   -0.280178
     43          1           0       -4.285853   -3.714577   -3.051642
     44          1           0       -2.941755   -2.648715   -3.534562
     45          1           0       -2.683193   -3.917343   -2.300191
     46          6           0       -6.462806    0.571160    1.601273
     47          8           0       -4.124886    1.298918    2.029155
     48          6           0       -7.136696   -0.292561    0.785790
     49          1           0       -6.949983    1.193455    2.337944
     50          6           0       -4.585427    2.191899    3.046225
     51          1           0       -8.198289   -0.483122    0.749532
     52          1           0       -5.084015    1.646506    3.852820
     53          1           0       -3.696329    2.683330    3.436617
     54          1           0       -5.264860    2.942766    2.632609
 ---------------------------------------------------------------------

 The electronic state is 1-A.
 Alpha  occ. eigenvalues --  -88.87616 -88.86456 -19.15892 -19.15860 -19.06810
 Alpha  occ. eigenvalues --  -19.06716 -19.06611 -19.06323 -14.34667 -14.34386
 Alpha  occ. eigenvalues --  -10.25246 -10.25011 -10.24989 -10.24911 -10.23515
 Alpha  occ. eigenvalues --  -10.23257 -10.22268 -10.22203 -10.20951 -10.20231
 Alpha  occ. eigenvalues --  -10.20185 -10.19793 -10.18566 -10.18441 -10.18139
 Alpha  occ. eigenvalues --  -10.18000 -10.17963 -10.17431 -10.16782 -10.15865
 Alpha  occ. eigenvalues --  -10.15772 -10.15523 -10.15401 -10.15377 -10.15336
 Alpha  occ. eigenvalues --  -10.15261  -7.96181  -7.95033  -5.92489  -5.92106
 Alpha  occ. eigenvalues --   -5.91750  -5.91355  -5.90974  -5.90568  -1.07192
 Alpha  occ. eigenvalues --   -1.07075  -1.02473  -1.02314  -1.00017  -0.99845
 Alpha  occ. eigenvalues --   -0.91182  -0.90914  -0.88874  -0.87331  -0.86113
 Alpha  occ. eigenvalues --   -0.81312  -0.79082  -0.77422  -0.75427  -0.74185
 Alpha  occ. eigenvalues --   -0.73702  -0.72720  -0.71642  -0.71213  -0.69155
 Alpha  occ. eigenvalues --   -0.68755  -0.67959  -0.66313  -0.62569  -0.61806
 Alpha  occ. eigenvalues --   -0.60968  -0.59842  -0.58937  -0.57265  -0.55038
 Alpha  occ. eigenvalues --   -0.54890  -0.53547  -0.53377  -0.52859  -0.50613
 Alpha  occ. eigenvalues --   -0.49568  -0.48060  -0.47384  -0.47107  -0.47065
 Alpha  occ. eigenvalues --   -0.46615  -0.46108  -0.45812  -0.45463  -0.44848
 Alpha  occ. eigenvalues --   -0.44460  -0.44343  -0.44160  -0.42766  -0.42221
 Alpha  occ. eigenvalues --   -0.41427  -0.41187  -0.40911  -0.40509  -0.40403
 Alpha  occ. eigenvalues --   -0.40202  -0.40001  -0.39226  -0.38324  -0.38243
 Alpha  occ. eigenvalues --   -0.37925  -0.37646  -0.37446  -0.36949  -0.36849
 Alpha  occ. eigenvalues --   -0.36363  -0.36224  -0.35091  -0.34926  -0.34484
 Alpha  occ. eigenvalues --   -0.33333  -0.33019  -0.32736  -0.32372  -0.31733
 Alpha  occ. eigenvalues --   -0.30109  -0.27798  -0.26726  -0.26390  -0.25797
 Alpha  occ. eigenvalues --   -0.25639  -0.25043  -0.24535  -0.24182  -0.23861
 Alpha  occ. eigenvalues --   -0.23718  -0.23149  -0.20890  -0.18153  -0.13224
 Alpha virt. eigenvalues --   -0.04613  -0.03399  -0.01281  -0.00485  -0.00052
 Alpha virt. eigenvalues --    0.00570   0.00866   0.00950   0.01154   0.01548
 Alpha virt. eigenvalues --    0.01955   0.02589   0.02766   0.03083   0.03191

 Mulliken charges:
               1
     1  C    0.334543
     2  C   -0.152656
     3  C    0.113947
     4  C    0.154482
     5  C    0.216909
     6  C   -0.325566
     7  C    0.202300
     8  C    0.011238
     9  C    0.278996
    10  C   -0.450736
    11  C    0.276619
    12  C    0.049194
    13  C   -0.510190
    14  C   -0.567950
    15  H    0.122589
    16  H    0.123079
    17  H    0.123590
    18  N   -0.074439
    19  N   -0.157904
    20  O   -0.526925
    21  O   -0.509952
    22  O   -0.517184
    23  O   -0.452633
    24  C   -0.177813
    25  H    0.162520
    26  H    0.163140
    27  H    0.168301
    28  C   -0.198716
    29  H    0.161482
    30  H    0.158904
    31  H    0.168451
    32  C    0.175902
    33  C   -0.574550
    34  S   -0.588809
    35  C   -0.136377
    36  H    0.144126
    37  C    0.476552
    38  O   -0.171660
    39  C    0.812070
    40  C   -0.235616
    41  C    0.010036
    42  S   -0.246480
    43  H    0.172008
    44  H    0.161213
    45  H    0.160021
    46  C   -0.585865
    47  O   -0.168748
    48  C   -0.345903
    49  H    0.156888
    50  C   -0.249272
    51  H    0.183646
    52  H    0.155467
    53  H    0.170999
    54  H    0.156737
 Sum of Mulliken charges =  -2.00000

 Dipole moment (field-independent basis, Debye):
    X=            -26.8163    Y=             -3.1821    Z=              1.4232  Tot=             27.0419
 Quadrupole moment (field-independent basis, Debye-Ang):
   XX=           -373.2007   YY=           -298.0054   ZZ=           -227.1833
   XY=            -10.7741   XZ=            -25.7595   YZ=             27.4504

 Normal termination of Gaussian 16 at Thu Oct 28 14:58:15 2021.
