 Gaussian 16, Revision C.01,
 Gaussian 16:  ES64L-G16RevC.01  3-Jul-2019

 ---------------------------------------------------------------
 # opt=modredundant b3lyp/6-311+g(d,p) scrf=(pcm, solvent=water)
 ---------------------------------------------------------------

 ----------
 NDI_80.pdb
 ----------
 Symbolic Z-matrix:
 Charge = -2 Multiplicity = 1

 SCF Done:  E(RB3LYP) =  -2359.60202084     A.U. after   16 cycles
 SCF Done:  E(RB3LYP) =  -2359.62025631     A.U. after   15 cycles
 SCF Done:  E(RB3LYP) =  -2359.62369303     A.U. after   15 cycles
 SCF Done:  E(RB3LYP) =  -2359.62416083     A.U. after   13 cycles
 SCF Done:  E(RB3LYP) =  -2359.62416962     A.U. after   12 cycles
 SCF Done:  E(RB3LYP) =  -2359.62432360     A.U. after   12 cycles
 SCF Done:  E(RB3LYP) =  -2359.62433872     A.U. after   11 cycles
 SCF Done:  E(RB3LYP) =  -2359.62434731     A.U. after   11 cycles
 SCF Done:  E(RB3LYP) =  -2359.62435364     A.U. after   11 cycles
 SCF Done:  E(RB3LYP) =  -2359.62436238     A.U. after   11 cycles
 SCF Done:  E(RB3LYP) =  -2359.62438749     A.U. after    9 cycles
 SCF Done:  E(RB3LYP) =  -2359.62438859     A.U. after    9 cycles
 SCF Done:  E(RB3LYP) =  -2359.62438928     A.U. after    9 cycles
 SCF Done:  E(RB3LYP) =  -2359.62439001     A.U. after    9 cycles
 SCF Done:  E(RB3LYP) =  -2359.62439021     A.U. after    9 cycles
 SCF Done:  E(RB3LYP) =  -2359.62439024     A.U. after    8 cycles
 SCF Done:  E(RB3LYP) =  -2359.62439034     A.U. after    9 cycles
 SCF Done:  E(RB3LYP) =  -2359.62439036     A.U. after    8 cycles
 SCF Done:  E(RB3LYP) =  -2359.62439034     A.U. after    8 cycles
 SCF Done:  E(RB3LYP) =  -2359.62439031     A.U. after    8 cycles
 Optimization completed.
    -- Stationary point found.

                         Standard orientation:
 ---------------------------------------------------------------------
 Center     Atomic      Atomic             Coordinates (Angstroms)
 Number     Number       Type             X           Y           Z
 ---------------------------------------------------------------------
      1          6           0       -3.087408   -2.846853    0.442103
      2          6           0       -2.558764   -1.525077    0.279769
      3          6           0       -3.426984   -0.437093    0.016500
      4          6           0       -4.827379   -0.631116   -0.089779
      5          6           0       -5.389615   -1.941167    0.071652
      6          6           0       -1.156620   -1.295740    0.409284
      7          6           0       -2.864431    0.885341   -0.152462
      8          6           0       -1.453958    1.081243   -0.054773
      9          6           0       -0.600273   -0.051078    0.271167
     10          6           0       -0.918797    2.390021   -0.316344
     11          6           0       -3.241263    3.288798   -0.614299
     12          6           0       -3.749021    1.962252   -0.428471
     13          6           0       -5.161665    1.731630   -0.531086
     14          6           0       -5.684088    0.484392   -0.367765
     15          1           0       -6.749560    0.307562   -0.448035
     16          1           0       -5.799379    2.580013   -0.747044
     17          1           0       -0.526675   -2.140746    0.658382
     18          7           0       -1.846916    3.428538   -0.544113
     19          7           0       -4.480844   -2.986512    0.331037
     20          8           0       -2.397474   -3.870425    0.674588
     21          8           0       -6.617453   -2.193115   -0.006447
     22          8           0       -3.959470    4.295555   -0.837398
     23          8           0        0.296981    2.685395   -0.364826
     24          6           0       -1.274263    4.758845   -0.760777
     25          1           0       -0.607771    5.015935    0.062874
     26          1           0       -0.692749    4.780885   -1.685157
     27          1           0       -2.093209    5.467931   -0.823452
     28          6           0       -5.009619   -4.341568    0.501271
     29          1           0       -4.605822   -5.005488   -0.265502
     30          1           0       -4.723364   -4.737318    1.476871
     31          1           0       -6.090336   -4.291616    0.418414
     32          6           0        0.859261    0.063908    0.511081
     33          6           0        1.516801    0.470647    1.640176
     34         16           0        1.990810   -0.505681   -0.690197
     35          6           0        2.932886    0.358695    1.538189
     36          1           0        0.998788    0.850820    2.508870
     37          6           0        3.386968   -0.156526    0.333262
     38          8           0        3.832951    0.692365    2.508848
     39          6           0        4.748347   -0.404359   -0.080473
     40          6           0        3.332120    1.269136    3.717965
     41          6           0        5.202437   -0.943566   -1.276580
     42         16           0        6.135314   -0.022134    0.939913
     43          1           0        4.205307    1.476338    4.333731
     44          1           0        2.797339    2.201424    3.516000
     45          1           0        2.673357    0.571643    4.242860
     46          6           0        6.621351   -1.046897   -1.374644
     47          8           0        4.304009   -1.319724   -2.232673
     48          6           0        7.253334   -0.586990   -0.254763
     49          1           0        7.146369   -1.442373   -2.232116
     50          6           0        4.814521   -1.872363   -3.448552
     51          1           0        8.313520   -0.548161   -0.056929
     52          1           0        5.375545   -2.791721   -3.257572
     53          1           0        3.944392   -2.099211   -4.061544
     54          1           0        5.450975   -1.152562   -3.971225
 ---------------------------------------------------------------------

 The electronic state is 1-A.
 Alpha  occ. eigenvalues --  -88.87658 -88.86781 -19.15941 -19.15888 -19.06638
 Alpha  occ. eigenvalues --  -19.06616 -19.06505 -19.06206 -14.34594 -14.34358
 Alpha  occ. eigenvalues --  -10.25071 -10.24902 -10.24880 -10.24873 -10.23556
 Alpha  occ. eigenvalues --  -10.23339 -10.22289 -10.22217 -10.20986 -10.20250
 Alpha  occ. eigenvalues --  -10.20245 -10.19836 -10.18519 -10.18376 -10.18132
 Alpha  occ. eigenvalues --  -10.18031 -10.17935 -10.17456 -10.16789 -10.16010
 Alpha  occ. eigenvalues --  -10.15641 -10.15369 -10.15314 -10.15313 -10.15245
 Alpha  occ. eigenvalues --  -10.15177  -7.96222  -7.95353  -5.92529  -5.92147
 Alpha  occ. eigenvalues --   -5.91792  -5.91670  -5.91284  -5.90904  -1.07239
 Alpha  occ. eigenvalues --   -1.07112  -1.02335  -1.02249  -0.99850  -0.99752
 Alpha  occ. eigenvalues --   -0.91079  -0.90838  -0.88952  -0.87388  -0.86088
 Alpha  occ. eigenvalues --   -0.81230  -0.79021  -0.77412  -0.75490  -0.74241
 Alpha  occ. eigenvalues --   -0.73595  -0.72726  -0.71626  -0.71249  -0.69186
 Alpha  occ. eigenvalues --   -0.68731  -0.67936  -0.66295  -0.62540  -0.61735
 Alpha  occ. eigenvalues --   -0.60902  -0.59791  -0.58994  -0.57280  -0.55045
 Alpha  occ. eigenvalues --   -0.54920  -0.53485  -0.53403  -0.52829  -0.50589
 Alpha  occ. eigenvalues --   -0.49322  -0.48421  -0.47415  -0.47096  -0.47048
 Alpha  occ. eigenvalues --   -0.46630  -0.46039  -0.45756  -0.45436  -0.44791
 Alpha  occ. eigenvalues --   -0.44445  -0.44329  -0.44222  -0.42519  -0.42183
 Alpha  occ. eigenvalues --   -0.41694  -0.41088  -0.40886  -0.40509  -0.40339
 Alpha  occ. eigenvalues --   -0.40104  -0.39985  -0.39164  -0.38229  -0.38171
 Alpha  occ. eigenvalues --   -0.37967  -0.37745  -0.37308  -0.36913  -0.36798
 Alpha  occ. eigenvalues --   -0.36469  -0.36200  -0.35148  -0.34734  -0.34498
 Alpha  occ. eigenvalues --   -0.33342  -0.33044  -0.32758  -0.32337  -0.31625
 Alpha  occ. eigenvalues --   -0.30102  -0.27761  -0.26681  -0.26256  -0.25745
 Alpha  occ. eigenvalues --   -0.25526  -0.25015  -0.24499  -0.24167  -0.23969
 Alpha  occ. eigenvalues --   -0.23535  -0.23227  -0.20832  -0.18243  -0.13173
 Alpha virt. eigenvalues --   -0.04239  -0.03395  -0.01237  -0.00372  -0.00040
 Alpha virt. eigenvalues --    0.00416   0.00548   0.01021   0.01174   0.01385
 Alpha virt. eigenvalues --    0.01754   0.02562   0.02678   0.03047   0.03167

 Mulliken charges:
               1
     1  C    0.428131
     2  C   -0.075973
     3  C    0.152152
     4  C    0.144843
     5  C    0.238479
     6  C   -0.586729
     7  C    0.196115
     8  C   -0.059246
     9  C    0.502525
    10  C   -0.404745
    11  C    0.200495
    12  C    0.141536
    13  C   -0.566536
    14  C   -0.645212
    15  H    0.121861
    16  H    0.122560
    17  H    0.119614
    18  N   -0.168417
    19  N   -0.161986
    20  O   -0.528131
    21  O   -0.515010
    22  O   -0.516564
    23  O   -0.372121
    24  C   -0.215261
    25  H    0.159784
    26  H    0.160866
    27  H    0.168141
    28  C   -0.199339
    29  H    0.159417
    30  H    0.159398
    31  H    0.167747
    32  C    0.074605
    33  C   -0.568799
    34  S   -0.204311
    35  C   -0.172267
    36  H    0.134526
    37  C    0.329045
    38  O   -0.176944
    39  C    0.740126
    40  C   -0.234052
    41  C    0.018259
    42  S   -0.253927
    43  H    0.171995
    44  H    0.162221
    45  H    0.158632
    46  C   -0.537196
    47  O   -0.176226
    48  C   -0.370873
    49  H    0.157120
    50  C   -0.247846
    51  H    0.183752
    52  H    0.155838
    53  H    0.171035
    54  H    0.156895
 Sum of Mulliken charges =  -2.00000

 Dipole moment (field-independent basis, Debye):
    X=             27.9990    Y=             -1.8478    Z=              1.2757  Tot=             28.0889
 Quadrupole moment (field-independent basis, Debye-Ang):
   XX=           -382.1051   YY=           -309.8572   ZZ=           -211.7867
   XY=             -6.2047   XZ=            -16.5729   YZ=             25.1931

 Normal termination of Gaussian 16 at Thu Oct 28 12:35:10 2021.
