 Gaussian 16, Revision C.01,
 Gaussian 16:  ES64L-G16RevC.01  3-Jul-2019

 ---------------------------------------------------------------
 # opt=modredundant b3lyp/6-311+g(d,p) scrf=(pcm, solvent=water)
 ---------------------------------------------------------------

 ----------
 NDI_50.pdb
 ----------
 Symbolic Z-matrix:
 Charge = -2 Multiplicity = 1

 SCF Done:  E(RB3LYP) =  -2359.60199023     A.U. after   16 cycles
 SCF Done:  E(RB3LYP) =  -2359.61895059     A.U. after   14 cycles
 SCF Done:  E(RB3LYP) =  -2359.62207426     A.U. after   15 cycles
 SCF Done:  E(RB3LYP) =  -2359.62355412     A.U. after   13 cycles
 SCF Done:  E(RB3LYP) =  -2359.62442977     A.U. after   15 cycles
 SCF Done:  E(RB3LYP) =  -2359.62483207     A.U. after   16 cycles
 SCF Done:  E(RB3LYP) =  -2359.62524510     A.U. after   12 cycles
 SCF Done:  E(RB3LYP) =  -2359.62530034     A.U. after   12 cycles
 SCF Done:  E(RB3LYP) =  -2359.62534400     A.U. after   11 cycles
 SCF Done:  E(RB3LYP) =  -2359.62536049     A.U. after   10 cycles
 SCF Done:  E(RB3LYP) =  -2359.62536966     A.U. after   11 cycles
 SCF Done:  E(RB3LYP) =  -2359.62537868     A.U. after   10 cycles
 SCF Done:  E(RB3LYP) =  -2359.62538812     A.U. after   11 cycles
 SCF Done:  E(RB3LYP) =  -2359.62539457     A.U. after   11 cycles
 SCF Done:  E(RB3LYP) =  -2359.62539529     A.U. after    9 cycles
 SCF Done:  E(RB3LYP) =  -2359.62539550     A.U. after    9 cycles
 SCF Done:  E(RB3LYP) =  -2359.62539569     A.U. after    9 cycles
 SCF Done:  E(RB3LYP) =  -2359.62539582     A.U. after    9 cycles
 SCF Done:  E(RB3LYP) =  -2359.62539593     A.U. after    9 cycles
 SCF Done:  E(RB3LYP) =  -2359.62539597     A.U. after    9 cycles
 Optimization completed.
    -- Stationary point found.

                         Standard orientation:
 ---------------------------------------------------------------------
 Center     Atomic      Atomic             Coordinates (Angstroms)
 Number     Number       Type             X           Y           Z
 ---------------------------------------------------------------------
      1          6           0       -2.829077   -2.935562    0.423283
      2          6           0       -2.413808   -1.580781    0.206474
      3          6           0       -3.379904   -0.550861    0.079467
      4          6           0       -4.764187   -0.834429    0.168520
      5          6           0       -5.213593   -2.180773    0.391915
      6          6           0       -1.027818   -1.255194    0.193551
      7          6           0       -2.931545    0.803060   -0.161583
      8          6           0       -1.536665    1.087681   -0.265543
      9          6           0       -0.572009    0.027114    0.000875
     10          6           0       -1.139746    2.390029   -0.727968
     11          6           0       -3.522891    3.163453   -0.617745
     12          6           0       -3.913672    1.815454   -0.324237
     13          6           0       -5.307548    1.497905   -0.216216
     14          6           0       -5.721431    0.221958    0.023795
     15          1           0       -6.773567   -0.022681    0.098907
     16          1           0       -6.021270    2.302910   -0.340493
     17          1           0       -0.326828   -2.047625    0.423850
     18          7           0       -2.150350    3.375605   -0.807533
     19          7           0       -4.213380   -3.166915    0.498425
     20          8           0       -2.049209   -3.910744    0.549659
     21          8           0       -6.420586   -2.508596    0.489308
     22          8           0       -4.326916    4.121683   -0.731293
     23          8           0        0.014132    2.722691   -1.080438
     24          6           0       -1.707897    4.715078   -1.201019
     25          1           0       -0.876427    5.030393   -0.570986
     26          1           0       -1.366794    4.720330   -2.239184
     27          1           0       -2.549430    5.391132   -1.089341
     28          6           0       -4.625596   -4.555932    0.713216
     29          1           0       -4.225339   -5.192762   -0.076951
     30          1           0       -4.245299   -4.921895    1.668928
     31          1           0       -5.710155   -4.588081    0.708449
     32          6           0        0.863727    0.277083    0.210059
     33          6           0        1.478042    1.175547    1.046420
     34         16           0        2.052425   -0.735649   -0.580066
     35          6           0        2.892104    1.050009    1.067096
     36          1           0        0.925259    1.898785    1.626861
     37          6           0        3.400891    0.053885    0.244223
     38          8           0        3.749948    1.800763    1.818562
     39          6           0        4.776860   -0.331789    0.047362
     40          6           0        3.193639    2.819249    2.654168
     41          6           0        5.286457   -1.326342   -0.777698
     42         16           0        6.114065    0.458578    0.884521
     43          1           0        4.038857    3.293739    3.149231
     44          1           0        2.653172    3.562253    2.061166
     45          1           0        2.525015    2.389322    3.405335
     46          6           0        6.706017   -1.452635   -0.740733
     47          8           0        4.434055   -2.079057   -1.533527
     48          6           0        7.285267   -0.555511    0.110873
     49          1           0        7.269402   -2.171930   -1.317464
     50          6           0        4.999546   -3.095205   -2.364945
     51          1           0        8.333889   -0.427072    0.330999
     52          1           0        5.532920   -3.840602   -1.767898
     53          1           0        4.160087   -3.568690   -2.870454
     54          1           0        5.676391   -2.664087   -3.108328
 ---------------------------------------------------------------------

 The electronic state is 1-A.
 Alpha  occ. eigenvalues --  -88.87589 -88.86745 -19.15885 -19.15831 -19.06826
 Alpha  occ. eigenvalues --  -19.06733 -19.06591 -19.06225 -14.34681 -14.34356
 Alpha  occ. eigenvalues --  -10.25261 -10.25027 -10.24966 -10.24886 -10.23459
 Alpha  occ. eigenvalues --  -10.23273 -10.22264 -10.22177 -10.20948 -10.20130
 Alpha  occ. eigenvalues --  -10.20108 -10.19749 -10.18573 -10.18415 -10.18156
 Alpha  occ. eigenvalues --  -10.17983 -10.17954 -10.17564 -10.16579 -10.15912
 Alpha  occ. eigenvalues --  -10.15794 -10.15526 -10.15393 -10.15388 -10.15327
 Alpha  occ. eigenvalues --  -10.15250  -7.96153  -7.95315  -5.92461  -5.92079
 Alpha  occ. eigenvalues --   -5.91722  -5.91633  -5.91251  -5.90862  -1.07175
 Alpha  occ. eigenvalues --   -1.07056  -1.02492  -1.02289  -1.00040  -0.99815
 Alpha  occ. eigenvalues --   -0.91200  -0.90871  -0.88880  -0.87351  -0.86120
 Alpha  occ. eigenvalues --   -0.81309  -0.79086  -0.77371  -0.75479  -0.74261
 Alpha  occ. eigenvalues --   -0.73508  -0.72852  -0.71594  -0.71246  -0.69158
 Alpha  occ. eigenvalues --   -0.68781  -0.67946  -0.66240  -0.62642  -0.61771
 Alpha  occ. eigenvalues --   -0.60974  -0.59912  -0.58865  -0.57252  -0.55018
 Alpha  occ. eigenvalues --   -0.54878  -0.53520  -0.53343  -0.52874  -0.50705
 Alpha  occ. eigenvalues --   -0.49464  -0.48221  -0.47373  -0.47052  -0.46965
 Alpha  occ. eigenvalues --   -0.46667  -0.46096  -0.45763  -0.45463  -0.44867
 Alpha  occ. eigenvalues --   -0.44444  -0.44292  -0.44219  -0.42571  -0.42013
 Alpha  occ. eigenvalues --   -0.41742  -0.41111  -0.40853  -0.40455  -0.40445
 Alpha  occ. eigenvalues --   -0.40192  -0.40005  -0.39104  -0.38299  -0.38241
 Alpha  occ. eigenvalues --   -0.38159  -0.37702  -0.37363  -0.36938  -0.36895
 Alpha  occ. eigenvalues --   -0.36440  -0.36165  -0.35086  -0.34917  -0.34483
 Alpha  occ. eigenvalues --   -0.33323  -0.32962  -0.32761  -0.32502  -0.31698
 Alpha  occ. eigenvalues --   -0.30284  -0.27844  -0.26695  -0.26367  -0.25798
 Alpha  occ. eigenvalues --   -0.25620  -0.25018  -0.24666  -0.24197  -0.23829
 Alpha  occ. eigenvalues --   -0.23776  -0.22948  -0.20892  -0.18088  -0.13213
 Alpha virt. eigenvalues --   -0.04682  -0.03335  -0.01369  -0.00441  -0.00034
 Alpha virt. eigenvalues --    0.00598   0.00877   0.00939   0.01307   0.01580
 Alpha virt. eigenvalues --    0.01942   0.02618   0.02649   0.03090   0.03186

 Mulliken charges:
               1
     1  C    0.359202
     2  C   -0.209116
     3  C    0.065314
     4  C    0.174355
     5  C    0.220667
     6  C   -0.502313
     7  C    0.210060
     8  C    0.139761
     9  C    0.440399
    10  C   -0.432469
    11  C    0.227481
    12  C    0.083997
    13  C   -0.520402
    14  C   -0.606282
    15  H    0.122745
    16  H    0.123169
    17  H    0.134400
    18  N   -0.110507
    19  N   -0.157696
    20  O   -0.527621
    21  O   -0.507834
    22  O   -0.515176
    23  O   -0.410328
    24  C   -0.186976
    25  H    0.160102
    26  H    0.160769
    27  H    0.167615
    28  C   -0.199035
    29  H    0.159048
    30  H    0.160988
    31  H    0.167939
    32  C    0.067315
    33  C   -0.440387
    34  S   -0.508611
    35  C   -0.300330
    36  H    0.140972
    37  C    0.609501
    38  O   -0.172111
    39  C    0.729023
    40  C   -0.233351
    41  C   -0.005374
    42  S   -0.241611
    43  H    0.171916
    44  H    0.159819
    45  H    0.158860
    46  C   -0.586255
    47  O   -0.169985
    48  C   -0.344308
    49  H    0.156749
    50  C   -0.250556
    51  H    0.183413
    52  H    0.156264
    53  H    0.170869
    54  H    0.155924
 Sum of Mulliken charges =  -2.00000

 Dipole moment (field-independent basis, Debye):
    X=             27.2077    Y=             -0.9540    Z=              1.6833  Tot=             27.2764
 Quadrupole moment (field-independent basis, Debye-Ang):
   XX=           -379.8453   YY=           -295.7783   ZZ=           -226.8761
   XY=             -9.9563   XZ=             -4.8325   YZ=             30.1137

 Normal termination of Gaussian 16 at Thu Oct 28 11:19:00 2021.
