 Gaussian 16, Revision C.01,
 Gaussian 16:  ES64L-G16RevC.01  3-Jul-2019

 ---------------------------------------------------------------
 # opt=modredundant b3lyp/6-311+g(d,p) scrf=(pcm, solvent=water)
 ---------------------------------------------------------------

 -----------
 NDI_-85.pdb
 -----------
 Symbolic Z-matrix:
 Charge = -2 Multiplicity = 1

 SCF Done:  E(RB3LYP) =  -2359.60345466     A.U. after   16 cycles
 SCF Done:  E(RB3LYP) =  -2359.62166357     A.U. after   13 cycles
 SCF Done:  E(RB3LYP) =  -2359.62413236     A.U. after   13 cycles
 SCF Done:  E(RB3LYP) =  -2359.62418413     A.U. after   12 cycles
 SCF Done:  E(RB3LYP) =  -2359.62427762     A.U. after   12 cycles
 SCF Done:  E(RB3LYP) =  -2359.62431646     A.U. after   11 cycles
 SCF Done:  E(RB3LYP) =  -2359.62431994     A.U. after   11 cycles
 SCF Done:  E(RB3LYP) =  -2359.62432379     A.U. after   10 cycles
 SCF Done:  E(RB3LYP) =  -2359.62432845     A.U. after   10 cycles
 SCF Done:  E(RB3LYP) =  -2359.62433206     A.U. after   11 cycles
 SCF Done:  E(RB3LYP) =  -2359.62433462     A.U. after   10 cycles
 SCF Done:  E(RB3LYP) =  -2359.62433673     A.U. after   10 cycles
 SCF Done:  E(RB3LYP) =  -2359.62433696     A.U. after    9 cycles
 SCF Done:  E(RB3LYP) =  -2359.62433683     A.U. after    9 cycles
 SCF Done:  E(RB3LYP) =  -2359.62433697     A.U. after    9 cycles
 SCF Done:  E(RB3LYP) =  -2359.62433705     A.U. after    9 cycles
 SCF Done:  E(RB3LYP) =  -2359.62433714     A.U. after    8 cycles
 SCF Done:  E(RB3LYP) =  -2359.62433719     A.U. after    8 cycles
 Optimization completed.
    -- Stationary point found.

                         Standard orientation:
 ---------------------------------------------------------------------
 Center     Atomic      Atomic             Coordinates (Angstroms)
 Number     Number       Type             X           Y           Z
 ---------------------------------------------------------------------
      1          6           0        3.123361   -2.844109    0.370407
      2          6           0        2.578921   -1.524036    0.253396
      3          6           0        3.430100   -0.421028   -0.001566
      4          6           0        4.829339   -0.598715   -0.145965
      5          6           0        5.406853   -1.907251   -0.035901
      6          6           0        1.176646   -1.313557    0.409785
      7          6           0        2.851632    0.900239   -0.119347
      8          6           0        1.442493    1.080498    0.020774
      9          6           0        0.604793   -0.072086    0.315977
     10          6           0        0.893300    2.397652   -0.155058
     11          6           0        3.197476    3.320071   -0.517382
     12          6           0        3.720363    1.993370   -0.382536
     13          6           0        5.132755    1.779434   -0.520972
     14          6           0        5.669726    0.532937   -0.407649
     15          1           0        6.734979    0.368972   -0.513909
     16          1           0        5.758749    2.640178   -0.721402
     17          1           0        0.557389   -2.174145    0.630257
     18          7           0        1.805069    3.446585   -0.398626
     19          7           0        4.514305   -2.967964    0.218060
     20          8           0        2.448713   -3.879289    0.596776
     21          8           0        6.634490   -2.145287   -0.152827
     22          8           0        3.901187    4.338420   -0.734755
     23          8           0       -0.323067    2.692590   -0.115645
     24          6           0        1.214978    4.777496   -0.557296
     25          1           0        0.534134    4.791417   -1.410479
     26          1           0        0.644166    5.045134    0.333156
     27          1           0        2.023886    5.483693   -0.712839
     28          6           0        5.059087   -4.322226    0.336409
     29          1           0        4.823145   -4.740196    1.316492
     30          1           0        4.622726   -4.973030   -0.423399
     31          1           0        6.134342   -4.262516    0.203975
     32          6           0       -0.858393    0.009770    0.553296
     33          6           0       -1.526545    0.286295    1.714535
     34         16           0       -1.978112   -0.427516   -0.713228
     35          6           0       -2.941812    0.182187    1.588919
     36          1           0       -1.017086    0.570648    2.624014
     37          6           0       -3.383663   -0.197348    0.330645
     38          8           0       -3.851150    0.404299    2.582612
     39          6           0       -4.740355   -0.407718   -0.118003
     40          6           0       -3.361481    0.829400    3.857378
     41          6           0       -5.182825   -0.802511   -1.373318
     42         16           0       -6.135478   -0.173861    0.935299
     43          1           0       -4.240501    0.963313    4.485022
     44          1           0       -2.709266    0.071645    4.300622
     45          1           0       -2.823202    1.777756    3.774940
     46          6           0       -6.599767   -0.914182   -1.489568
     47          8           0       -4.276078   -1.045190   -2.364090
     48          6           0       -7.241516   -0.604915   -0.324411
     49          1           0       -7.116657   -1.208898   -2.391378
     50          6           0       -4.774453   -1.449880   -3.641739
     51          1           0       -8.302764   -0.605253   -0.128449
     52          1           0       -5.417782   -0.678823   -4.075402
     53          1           0       -3.898894   -1.588713   -4.272990
     54          1           0       -5.324393   -2.392561   -3.568855
 ---------------------------------------------------------------------

 The electronic state is 1-A.
 Alpha  occ. eigenvalues --  -88.87666 -88.86765 -19.15947 -19.15898 -19.06624
 Alpha  occ. eigenvalues --  -19.06610 -19.06500 -19.06189 -14.34590 -14.34360
 Alpha  occ. eigenvalues --  -10.25058 -10.24894 -10.24877 -10.24864 -10.23568
 Alpha  occ. eigenvalues --  -10.23342 -10.22294 -10.22225 -10.20989 -10.20266
 Alpha  occ. eigenvalues --  -10.20259 -10.19845 -10.18518 -10.18366 -10.18137
 Alpha  occ. eigenvalues --  -10.18037 -10.17933 -10.17447 -10.16814 -10.16029
 Alpha  occ. eigenvalues --  -10.15620 -10.15354 -10.15312 -10.15303 -10.15238
 Alpha  occ. eigenvalues --  -10.15170  -7.96230  -7.95338  -5.92537  -5.92155
 Alpha  occ. eigenvalues --   -5.91800  -5.91655  -5.91269  -5.90888  -1.07245
 Alpha  occ. eigenvalues --   -1.07118  -1.02323  -1.02244  -0.99836  -0.99742
 Alpha  occ. eigenvalues --   -0.91072  -0.90832  -0.88959  -0.87388  -0.86085
 Alpha  occ. eigenvalues --   -0.81224  -0.79017  -0.77420  -0.75492  -0.74238
 Alpha  occ. eigenvalues --   -0.73609  -0.72712  -0.71632  -0.71247  -0.69188
 Alpha  occ. eigenvalues --   -0.68725  -0.67940  -0.66300  -0.62531  -0.61734
 Alpha  occ. eigenvalues --   -0.60897  -0.59778  -0.59010  -0.57286  -0.55049
 Alpha  occ. eigenvalues --   -0.54924  -0.53488  -0.53406  -0.52826  -0.50574
 Alpha  occ. eigenvalues --   -0.49318  -0.48431  -0.47420  -0.47101  -0.47062
 Alpha  occ. eigenvalues --   -0.46629  -0.46034  -0.45754  -0.45435  -0.44784
 Alpha  occ. eigenvalues --   -0.44447  -0.44339  -0.44216  -0.42529  -0.42195
 Alpha  occ. eigenvalues --   -0.41678  -0.41082  -0.40892  -0.40523  -0.40331
 Alpha  occ. eigenvalues --   -0.40088  -0.39989  -0.39170  -0.38208  -0.38180
 Alpha  occ. eigenvalues --   -0.37937  -0.37751  -0.37319  -0.36912  -0.36781
 Alpha  occ. eigenvalues --   -0.36469  -0.36206  -0.35154  -0.34697  -0.34522
 Alpha  occ. eigenvalues --   -0.33333  -0.33044  -0.32749  -0.32357  -0.31609
 Alpha  occ. eigenvalues --   -0.30078  -0.27764  -0.26684  -0.26243  -0.25728
 Alpha  occ. eigenvalues --   -0.25527  -0.25027  -0.24456  -0.24199  -0.23972
 Alpha  occ. eigenvalues --   -0.23515  -0.23249  -0.20831  -0.18255  -0.13172
 Alpha virt. eigenvalues --   -0.04202  -0.03422  -0.01217  -0.00366  -0.00044
 Alpha virt. eigenvalues --    0.00377   0.00539   0.01013   0.01199   0.01354
 Alpha virt. eigenvalues --    0.01734   0.02560   0.02684   0.03042   0.03166

 Mulliken charges:
               1
     1  C    0.428172
     2  C   -0.034417
     3  C    0.176579
     4  C    0.146214
     5  C    0.244564
     6  C   -0.614505
     7  C    0.195988
     8  C   -0.107736
     9  C    0.502426
    10  C   -0.399638
    11  C    0.190668
    12  C    0.156298
    13  C   -0.577794
    14  C   -0.651540
    15  H    0.121864
    16  H    0.122528
    17  H    0.118135
    18  N   -0.176379
    19  N   -0.162135
    20  O   -0.527978
    21  O   -0.515355
    22  O   -0.515824
    23  O   -0.367546
    24  C   -0.217292
    25  H    0.159939
    26  H    0.159214
    27  H    0.168340
    28  C   -0.199402
    29  H    0.159467
    30  H    0.159158
    31  H    0.167741
    32  C    0.036014
    33  C   -0.545037
    34  S   -0.153224
    35  C   -0.154403
    36  H    0.133783
    37  C    0.281383
    38  O   -0.177919
    39  C    0.738151
    40  C   -0.234115
    41  C    0.038121
    42  S   -0.254182
    43  H    0.172216
    44  H    0.159194
    45  H    0.161863
    46  C   -0.535963
    47  O   -0.178280
    48  C   -0.374946
    49  H    0.157146
    50  C   -0.247290
    51  H    0.183785
    52  H    0.156832
    53  H    0.171087
    54  H    0.156029
 Sum of Mulliken charges =  -2.00000

 Dipole moment (field-independent basis, Debye):
    X=            -28.0500    Y=             -2.0781    Z=              0.9977  Tot=             28.1446
 Quadrupole moment (field-independent basis, Debye-Ang):
   XX=           -381.8905   YY=           -313.1138   ZZ=           -208.6389
   XY=              4.9495   XZ=             18.5124   YZ=             19.8548

 Normal termination of Gaussian 16 at Thu Oct 28 10:01:51 2021.
