 Gaussian 16, Revision C.01,
 Gaussian 16:  ES64L-G16RevC.01  3-Jul-2019

 ---------------------------------------------------------------
 # opt=modredundant b3lyp/6-311+g(d,p) scrf=(pcm, solvent=water)
 ---------------------------------------------------------------

 -----------
 NDI_-80.pdb
 -----------
 Symbolic Z-matrix:
 Charge = -2 Multiplicity = 1

 SCF Done:  E(RB3LYP) =  -2359.60390544     A.U. after   16 cycles
 SCF Done:  E(RB3LYP) =  -2359.62177095     A.U. after   13 cycles
 SCF Done:  E(RB3LYP) =  -2359.62419372     A.U. after   13 cycles
 SCF Done:  E(RB3LYP) =  -2359.62423965     A.U. after   12 cycles
 SCF Done:  E(RB3LYP) =  -2359.62433121     A.U. after   11 cycles
 SCF Done:  E(RB3LYP) =  -2359.62436254     A.U. after   11 cycles
 SCF Done:  E(RB3LYP) =  -2359.62436622     A.U. after   11 cycles
 SCF Done:  E(RB3LYP) =  -2359.62437096     A.U. after   10 cycles
 SCF Done:  E(RB3LYP) =  -2359.62437620     A.U. after   10 cycles
 SCF Done:  E(RB3LYP) =  -2359.62438122     A.U. after   11 cycles
 SCF Done:  E(RB3LYP) =  -2359.62438836     A.U. after    9 cycles
 SCF Done:  E(RB3LYP) =  -2359.62438897     A.U. after    9 cycles
 SCF Done:  E(RB3LYP) =  -2359.62438921     A.U. after    9 cycles
 SCF Done:  E(RB3LYP) =  -2359.62438971     A.U. after    9 cycles
 SCF Done:  E(RB3LYP) =  -2359.62439009     A.U. after    9 cycles
 SCF Done:  E(RB3LYP) =  -2359.62439028     A.U. after    9 cycles
 SCF Done:  E(RB3LYP) =  -2359.62439037     A.U. after    8 cycles
 SCF Done:  E(RB3LYP) =  -2359.62439042     A.U. after    8 cycles
 SCF Done:  E(RB3LYP) =  -2359.62439047     A.U. after    8 cycles
 SCF Done:  E(RB3LYP) =  -2359.62439048     A.U. after    8 cycles
 Optimization completed.
    -- Stationary point found.

                         Standard orientation:
 ---------------------------------------------------------------------
 Center     Atomic      Atomic             Coordinates (Angstroms)
 Number     Number       Type             X           Y           Z
 ---------------------------------------------------------------------
      1          6           0        3.087242   -2.846926    0.442089
      2          6           0        2.558697   -1.525116    0.279757
      3          6           0        3.426985   -0.437161    0.016555
      4          6           0        4.827382   -0.631292   -0.089616
      5          6           0        5.389561   -1.941357    0.071864
      6          6           0        1.156552   -1.295698    0.409116
      7          6           0        2.864515    0.885301   -0.152512
      8          6           0        1.454034    1.081294   -0.054948
      9          6           0        0.600283   -0.050997    0.271000
     10          6           0        0.918932    2.390056   -0.316650
     11          6           0        3.241489    3.288747   -0.614407
     12          6           0        3.749155    1.962184   -0.428497
     13          6           0        5.161793    1.731452   -0.530996
     14          6           0        5.684136    0.484185   -0.367629
     15          1           0        6.749613    0.307351   -0.447880
     16          1           0        5.799630    2.579744   -0.746962
     17          1           0        0.526519   -2.140653    0.658178
     18          7           0        1.847118    3.428513   -0.544572
     19          7           0        4.480728   -2.986622    0.331439
     20          8           0        2.397217   -3.870504    0.674289
     21          8           0        6.617366   -2.193420   -0.006343
     22          8           0        3.959790    4.295491   -0.837292
     23          8           0       -0.296827    2.685494   -0.365221
     24          6           0        1.274492    4.758785   -0.761507
     25          1           0        0.691780    4.780155   -1.685125
     26          1           0        0.609137    5.016759    0.062813
     27          1           0        2.093552    5.467598   -0.825737
     28          6           0        5.009427   -4.341661    0.502076
     29          1           0        4.720166   -4.738224    1.476419
     30          1           0        4.608298   -5.005147   -0.266518
     31          1           0        6.090371   -4.291304    0.422489
     32          6           0       -0.859258    0.064129    0.510873
     33          6           0       -1.516756    0.471065    1.639929
     34         16           0       -1.990859   -0.505739   -0.690219
     35          6           0       -2.932830    0.359059    1.538043
     36          1           0       -0.998670    0.851353    2.508528
     37          6           0       -3.386968   -0.156452    0.333256
     38          8           0       -3.832863    0.692864    2.508684
     39          6           0       -4.748376   -0.404318   -0.080370
     40          6           0       -3.332059    1.270407    3.717439
     41          6           0       -5.202569   -0.943769   -1.276329
     42         16           0       -6.135276   -0.021870    0.940027
     43          1           0       -4.205249    1.477927    4.333097
     44          1           0       -2.673242    0.573278    4.242756
     45          1           0       -2.797340    2.202606    3.514904
     46          6           0       -6.621491   -1.047098   -1.374281
     47          8           0       -4.304218   -1.320099   -2.232435
     48          6           0       -7.253393   -0.586988   -0.254436
     49          1           0       -7.146575   -1.442726   -2.231642
     50          6           0       -4.814812   -1.873422   -3.447963
     51          1           0       -8.313568   -0.548073   -0.056556
     52          1           0       -5.451429   -1.153973   -3.970926
     53          1           0       -3.944736   -2.100459   -4.060960
     54          1           0       -5.375694   -2.792755   -3.256444
 ---------------------------------------------------------------------

 The electronic state is 1-A.
 Alpha  occ. eigenvalues --  -88.87658 -88.86782 -19.15941 -19.15888 -19.06638
 Alpha  occ. eigenvalues --  -19.06616 -19.06505 -19.06206 -14.34594 -14.34358
 Alpha  occ. eigenvalues --  -10.25071 -10.24902 -10.24880 -10.24873 -10.23556
 Alpha  occ. eigenvalues --  -10.23339 -10.22289 -10.22217 -10.20986 -10.20250
 Alpha  occ. eigenvalues --  -10.20245 -10.19836 -10.18519 -10.18376 -10.18132
 Alpha  occ. eigenvalues --  -10.18031 -10.17935 -10.17456 -10.16789 -10.16010
 Alpha  occ. eigenvalues --  -10.15641 -10.15369 -10.15314 -10.15313 -10.15245
 Alpha  occ. eigenvalues --  -10.15177  -7.96222  -7.95353  -5.92529  -5.92147
 Alpha  occ. eigenvalues --   -5.91792  -5.91671  -5.91285  -5.90904  -1.07239
 Alpha  occ. eigenvalues --   -1.07112  -1.02335  -1.02249  -0.99850  -0.99752
 Alpha  occ. eigenvalues --   -0.91079  -0.90838  -0.88952  -0.87388  -0.86087
 Alpha  occ. eigenvalues --   -0.81229  -0.79021  -0.77412  -0.75490  -0.74240
 Alpha  occ. eigenvalues --   -0.73595  -0.72726  -0.71626  -0.71249  -0.69186
 Alpha  occ. eigenvalues --   -0.68730  -0.67936  -0.66295  -0.62540  -0.61735
 Alpha  occ. eigenvalues --   -0.60902  -0.59790  -0.58994  -0.57280  -0.55045
 Alpha  occ. eigenvalues --   -0.54920  -0.53485  -0.53403  -0.52829  -0.50589
 Alpha  occ. eigenvalues --   -0.49322  -0.48421  -0.47415  -0.47096  -0.47048
 Alpha  occ. eigenvalues --   -0.46631  -0.46038  -0.45756  -0.45436  -0.44791
 Alpha  occ. eigenvalues --   -0.44445  -0.44329  -0.44222  -0.42519  -0.42183
 Alpha  occ. eigenvalues --   -0.41694  -0.41088  -0.40886  -0.40509  -0.40340
 Alpha  occ. eigenvalues --   -0.40104  -0.39986  -0.39164  -0.38229  -0.38170
 Alpha  occ. eigenvalues --   -0.37968  -0.37745  -0.37308  -0.36913  -0.36798
 Alpha  occ. eigenvalues --   -0.36469  -0.36200  -0.35148  -0.34735  -0.34498
 Alpha  occ. eigenvalues --   -0.33342  -0.33044  -0.32758  -0.32337  -0.31625
 Alpha  occ. eigenvalues --   -0.30102  -0.27761  -0.26681  -0.26256  -0.25746
 Alpha  occ. eigenvalues --   -0.25525  -0.25015  -0.24499  -0.24167  -0.23969
 Alpha  occ. eigenvalues --   -0.23536  -0.23227  -0.20832  -0.18243  -0.13174
 Alpha virt. eigenvalues --   -0.04239  -0.03396  -0.01238  -0.00372  -0.00040
 Alpha virt. eigenvalues --    0.00416   0.00548   0.01021   0.01174   0.01385
 Alpha virt. eigenvalues --    0.01754   0.02562   0.02678   0.03047   0.03167

 Mulliken charges:
               1
     1  C    0.427959
     2  C   -0.076048
     3  C    0.152059
     4  C    0.144874
     5  C    0.238374
     6  C   -0.586404
     7  C    0.196241
     8  C   -0.059058
     9  C    0.502400
    10  C   -0.404627
    11  C    0.200503
    12  C    0.141655
    13  C   -0.566667
    14  C   -0.645235
    15  H    0.121861
    16  H    0.122558
    17  H    0.119623
    18  N   -0.168405
    19  N   -0.162022
    20  O   -0.528129
    21  O   -0.515017
    22  O   -0.516548
    23  O   -0.372135
    24  C   -0.215150
    25  H    0.160842
    26  H    0.159769
    27  H    0.168145
    28  C   -0.199365
    29  H    0.159373
    30  H    0.159460
    31  H    0.167741
    32  C    0.074545
    33  C   -0.568895
    34  S   -0.204448
    35  C   -0.172346
    36  H    0.134524
    37  C    0.329239
    38  O   -0.176937
    39  C    0.740113
    40  C   -0.234073
    41  C    0.018205
    42  S   -0.253927
    43  H    0.171992
    44  H    0.158630
    45  H    0.162219
    46  C   -0.537189
    47  O   -0.176218
    48  C   -0.370852
    49  H    0.157121
    50  C   -0.247844
    51  H    0.183753
    52  H    0.156891
    53  H    0.171034
    54  H    0.155838
 Sum of Mulliken charges =  -2.00000

 Dipole moment (field-independent basis, Debye):
    X=            -27.9989    Y=             -1.8470    Z=              1.2773  Tot=             28.0888
 Quadrupole moment (field-independent basis, Debye-Ang):
   XX=           -382.1048   YY=           -309.8542   ZZ=           -211.7940
   XY=              6.2071   XZ=             16.5748   YZ=             25.1904

 Normal termination of Gaussian 16 at Thu Oct 28 10:27:12 2021.
