 Gaussian 16, Revision C.01,
 Gaussian 16:  ES64L-G16RevC.01  3-Jul-2019

 ---------------------------------------------------------------
 # opt=modredundant b3lyp/6-311+g(d,p) scrf=(pcm, solvent=water)
 ---------------------------------------------------------------

 -----------
 NDI_120.pdb
 -----------
 Symbolic Z-matrix:
 Charge = -2 Multiplicity = 1

 SCF Done:  E(RB3LYP) =  -2359.60285912     A.U. after   17 cycles
 SCF Done:  E(RB3LYP) =  -2359.62103407     A.U. after   15 cycles
 SCF Done:  E(RB3LYP) =  -2359.62402543     A.U. after   13 cycles
 SCF Done:  E(RB3LYP) =  -2359.62459482     A.U. after   13 cycles
 SCF Done:  E(RB3LYP) =  -2359.62495996     A.U. after   12 cycles
 SCF Done:  E(RB3LYP) =  -2359.62501269     A.U. after   12 cycles
 SCF Done:  E(RB3LYP) =  -2359.62503802     A.U. after   10 cycles
 SCF Done:  E(RB3LYP) =  -2359.62506832     A.U. after   11 cycles
 SCF Done:  E(RB3LYP) =  -2359.62508392     A.U. after   11 cycles
 SCF Done:  E(RB3LYP) =  -2359.62509166     A.U. after   10 cycles
 SCF Done:  E(RB3LYP) =  -2359.62515590     A.U. after   10 cycles
 SCF Done:  E(RB3LYP) =  -2359.62515654     A.U. after   11 cycles
 SCF Done:  E(RB3LYP) =  -2359.62515730     A.U. after    9 cycles
 SCF Done:  E(RB3LYP) =  -2359.62515787     A.U. after    9 cycles
 SCF Done:  E(RB3LYP) =  -2359.62515820     A.U. after    9 cycles
 SCF Done:  E(RB3LYP) =  -2359.62515847     A.U. after   10 cycles
 SCF Done:  E(RB3LYP) =  -2359.62515858     A.U. after    8 cycles
 SCF Done:  E(RB3LYP) =  -2359.62515862     A.U. after    8 cycles
 SCF Done:  E(RB3LYP) =  -2359.62515866     A.U. after    8 cycles
 SCF Done:  E(RB3LYP) =  -2359.62515869     A.U. after    8 cycles
 Optimization completed.
    -- Stationary point found.

                         Standard orientation:
 ---------------------------------------------------------------------
 Center     Atomic      Atomic             Coordinates (Angstroms)
 Number     Number       Type             X           Y           Z
 ---------------------------------------------------------------------
      1          6           0        3.425223   -2.727898    0.354103
      2          6           0        2.740630   -1.497733    0.087033
      3          6           0        3.440927   -0.266622    0.137427
      4          6           0        4.820718   -0.224462    0.457583
      5          6           0        5.535219   -1.438459    0.734281
      6          6           0        1.339544   -1.503658   -0.179039
      7          6           0        2.729768    0.957408   -0.161273
      8          6           0        1.342945    0.915870   -0.495433
      9          6           0        0.636344   -0.355749   -0.442201
     10          6           0        0.710689    2.121638   -0.956374
     11          6           0        2.806608    3.411949   -0.476531
     12          6           0        3.454039    2.178619   -0.139098
     13          6           0        4.847019    2.188646    0.203231
     14          6           0        5.508017    1.033132    0.493028
     15          1           0        6.561124    1.038075    0.745477
     16          1           0        5.358190    3.143402    0.216915
     17          1           0        0.816488   -2.449637   -0.116058
     18          7           0        1.464329    3.312777   -0.872664
     19          7           0        4.793947   -2.634337    0.658561
     20          8           0        2.889926   -3.863783    0.334059
     21          8           0        6.755125   -1.483795    1.026761
     22          8           0        3.370755    4.534206   -0.453072
     23          8           0       -0.443908    2.202961   -1.434297
     24          6           0        0.778682    4.534659   -1.299028
     25          1           0        0.565553    4.502468   -2.370101
     26          1           0       -0.168585    4.634384   -0.769131
     27          1           0        1.428037    5.375734   -1.079201
     28          6           0        5.486568   -3.898275    0.918786
     29          1           0        5.064911   -4.389942    1.797788
     30          1           0        5.372220   -4.570199    0.067162
     31          1           0        6.535640   -3.676669    1.085452
     32          6           0       -0.828967   -0.494253   -0.578458
     33          6           0       -1.524818   -1.200021   -1.524804
     34         16           0       -1.914771    0.135950    0.640486
     35          6           0       -2.931268   -1.216971   -1.296543
     36          1           0       -1.040124   -1.672422   -2.367019
     37          6           0       -3.339316   -0.533681   -0.162051
     38          8           0       -3.861283   -1.828605   -2.086877
     39          6           0       -4.681246   -0.352823    0.340501
     40          6           0       -3.404431   -2.497660   -3.265452
     41          6           0       -5.092717    0.307398    1.490807
     42         16           0       -6.099870   -0.983678   -0.497226
     43          1           0       -4.294775   -2.903366   -3.742169
     44          1           0       -2.910941   -1.799459   -3.947390
     45          1           0       -2.721259   -3.313888   -3.014326
     46          6           0       -6.504146    0.310615    1.694584
     47          8           0       -4.164660    0.878892    2.312351
     48          6           0       -7.173110   -0.347526    0.702459
     49          1           0       -6.997909    0.776415    2.535133
     50          6           0       -4.634928    1.570765    3.471832
     51          1           0       -8.236883   -0.500810    0.604822
     52          1           0       -5.170182    0.894026    4.144169
     53          1           0       -3.746850    1.951474    3.972567
     54          1           0       -5.283943    2.406535    3.194857
 ---------------------------------------------------------------------

 The electronic state is 1-A.
 Alpha  occ. eigenvalues --  -88.87646 -88.86520 -19.15917 -19.15883 -19.06705
 Alpha  occ. eigenvalues --  -19.06653 -19.06550 -19.06253 -14.34621 -14.34374
 Alpha  occ. eigenvalues --  -10.25141 -10.24943 -10.24932 -10.24885 -10.23555
 Alpha  occ. eigenvalues --  -10.23294 -10.22279 -10.22217 -10.20974 -10.20250
 Alpha  occ. eigenvalues --  -10.20245 -10.19828 -10.18537 -10.18397 -10.18133
 Alpha  occ. eigenvalues --  -10.18020 -10.17945 -10.17414 -10.16842 -10.15945
 Alpha  occ. eigenvalues --  -10.15673 -10.15434 -10.15349 -10.15325 -10.15282
 Alpha  occ. eigenvalues --  -10.15214  -7.96210  -7.95099  -5.92518  -5.92135
 Alpha  occ. eigenvalues --   -5.91780  -5.91420  -5.91038  -5.90637  -1.07221
 Alpha  occ. eigenvalues --   -1.07100  -1.02385  -1.02273  -0.99913  -0.99793
 Alpha  occ. eigenvalues --   -0.91117  -0.90869  -0.88908  -0.87342  -0.86090
 Alpha  occ. eigenvalues --   -0.81261  -0.79041  -0.77425  -0.75448  -0.74194
 Alpha  occ. eigenvalues --   -0.73674  -0.72690  -0.71638  -0.71220  -0.69164
 Alpha  occ. eigenvalues --   -0.68734  -0.67946  -0.66312  -0.62530  -0.61770
 Alpha  occ. eigenvalues --   -0.60933  -0.59782  -0.58986  -0.57273  -0.55041
 Alpha  occ. eigenvalues --   -0.54907  -0.53504  -0.53404  -0.52834  -0.50568
 Alpha  occ. eigenvalues --   -0.49467  -0.48212  -0.47401  -0.47105  -0.47080
 Alpha  occ. eigenvalues --   -0.46615  -0.46066  -0.45779  -0.45446  -0.44810
 Alpha  occ. eigenvalues --   -0.44450  -0.44341  -0.44170  -0.42680  -0.42205
 Alpha  occ. eigenvalues --   -0.41531  -0.41126  -0.40908  -0.40519  -0.40362
 Alpha  occ. eigenvalues --   -0.40144  -0.39989  -0.39215  -0.38257  -0.38217
 Alpha  occ. eigenvalues --   -0.37886  -0.37672  -0.37411  -0.36905  -0.36787
 Alpha  occ. eigenvalues --   -0.36415  -0.36225  -0.35109  -0.34817  -0.34492
 Alpha  occ. eigenvalues --   -0.33328  -0.33036  -0.32690  -0.32396  -0.31654
 Alpha  occ. eigenvalues --   -0.30052  -0.27771  -0.26699  -0.26308  -0.25760
 Alpha  occ. eigenvalues --   -0.25570  -0.25040  -0.24456  -0.24131  -0.23972
 Alpha  occ. eigenvalues --   -0.23594  -0.23229  -0.20853  -0.18218  -0.13198
 Alpha virt. eigenvalues --   -0.04397  -0.03428  -0.01176  -0.00426  -0.00055
 Alpha virt. eigenvalues --    0.00523   0.00631   0.00974   0.01144   0.01469
 Alpha virt. eigenvalues --    0.01822   0.02563   0.02729   0.03088   0.03113

 Mulliken charges:
               1
     1  C    0.384253
     2  C   -0.149596
     3  C    0.085548
     4  C    0.224559
     5  C    0.252008
     6  C   -0.563192
     7  C    0.170122
     8  C   -0.067258
     9  C    0.265137
    10  C   -0.247913
    11  C    0.316838
    12  C    0.175631
    13  C   -0.555256
    14  C   -0.648825
    15  H    0.122566
    16  H    0.123505
    17  H    0.121022
    18  N   -0.119200
    19  N   -0.157938
    20  O   -0.527420
    21  O   -0.513229
    22  O   -0.516655
    23  O   -0.427885
    24  C   -0.184377
    25  H    0.161500
    26  H    0.161979
    27  H    0.168632
    28  C   -0.201210
    29  H    0.160810
    30  H    0.158917
    31  H    0.168701
    32  C    0.178932
    33  C   -0.567705
    34  S   -0.438004
    35  C   -0.229156
    36  H    0.138636
    37  C    0.347640
    38  O   -0.157964
    39  C    0.850169
    40  C   -0.255868
    41  C   -0.002806
    42  S   -0.228060
    43  H    0.172412
    44  H    0.161666
    45  H    0.160586
    46  C   -0.529484
    47  O   -0.172443
    48  C   -0.346129
    49  H    0.157234
    50  C   -0.248647
    51  H    0.183946
    52  H    0.155379
    53  H    0.170965
    54  H    0.156927
 Sum of Mulliken charges =  -2.00000

 Dipole moment (field-independent basis, Debye):
    X=            -27.4153    Y=             -3.0020    Z=              0.8010  Tot=             27.5908
 Quadrupole moment (field-independent basis, Debye-Ang):
   XX=           -376.8027   YY=           -305.5409   ZZ=           -218.1199
   XY=             -8.2618   XZ=            -24.7994   YZ=             24.9044

 Normal termination of Gaussian 16 at Thu Oct 28 15:03:43 2021.
