 Gaussian 16, Revision C.01,
 Gaussian 16:  ES64L-G16RevC.01  3-Jul-2019

 ---------------------------------------------------------------
 # opt=modredundant b3lyp/6-311+g(d,p) scrf=(pcm, solvent=water)
 ---------------------------------------------------------------

 -----------
 NDI_115.pdb
 -----------
 Symbolic Z-matrix:
 Charge = -2 Multiplicity = 1

 SCF Done:  E(RB3LYP) =  -2359.60350194     A.U. after   18 cycles
 SCF Done:  E(RB3LYP) =  -2359.62141038     A.U. after   15 cycles
 SCF Done:  E(RB3LYP) =  -2359.62447150     A.U. after   13 cycles
 SCF Done:  E(RB3LYP) =  -2359.62428904     A.U. after   13 cycles
 SCF Done:  E(RB3LYP) =  -2359.62482555     A.U. after   12 cycles
 SCF Done:  E(RB3LYP) =  -2359.62484663     A.U. after   12 cycles
 SCF Done:  E(RB3LYP) =  -2359.62486996     A.U. after   11 cycles
 SCF Done:  E(RB3LYP) =  -2359.62489130     A.U. after   11 cycles
 SCF Done:  E(RB3LYP) =  -2359.62490897     A.U. after   11 cycles
 SCF Done:  E(RB3LYP) =  -2359.62492085     A.U. after   10 cycles
 SCF Done:  E(RB3LYP) =  -2359.62498057     A.U. after   11 cycles
 SCF Done:  E(RB3LYP) =  -2359.62498216     A.U. after   10 cycles
 SCF Done:  E(RB3LYP) =  -2359.62498346     A.U. after   11 cycles
 SCF Done:  E(RB3LYP) =  -2359.62498304     A.U. after   11 cycles
 SCF Done:  E(RB3LYP) =  -2359.62498417     A.U. after   10 cycles
 SCF Done:  E(RB3LYP) =  -2359.62498398     A.U. after    9 cycles
 SCF Done:  E(RB3LYP) =  -2359.62498387     A.U. after    9 cycles
 SCF Done:  E(RB3LYP) =  -2359.62498398     A.U. after    9 cycles
 SCF Done:  E(RB3LYP) =  -2359.62498392     A.U. after    8 cycles
 SCF Done:  E(RB3LYP) =  -2359.62498401     A.U. after    8 cycles
 Optimization completed.
    -- Stationary point found.

                         Standard orientation:
 ---------------------------------------------------------------------
 Center     Atomic      Atomic             Coordinates (Angstroms)
 Number     Number       Type             X           Y           Z
 ---------------------------------------------------------------------
      1          6           0        3.395222   -2.745753    0.326200
      2          6           0        2.725985   -1.502812    0.080755
      3          6           0        3.445330   -0.283166    0.130649
      4          6           0        4.831316   -0.265692    0.427034
      5          6           0        5.531586   -1.492877    0.679130
      6          6           0        1.322755   -1.485776   -0.173618
      7          6           0        2.747042    0.954866   -0.140437
      8          6           0        1.353816    0.938716   -0.451500
      9          6           0        0.632821   -0.325717   -0.415593
     10          6           0        0.725002    2.166794   -0.856005
     11          6           0        2.853449    3.414568   -0.406128
     12          6           0        3.489486    2.165187   -0.109948
     13          6           0        4.889257    2.149536    0.203614
     14          6           0        5.538513    0.980728    0.464179
     15          1           0        6.596367    0.966564    0.695673
     16          1           0        5.414782    3.096319    0.219263
     17          1           0        0.789087   -2.426903   -0.129285
     18          7           0        1.500353    3.343654   -0.769727
     19          7           0        4.770275   -2.676363    0.607112
     20          8           0        2.841319   -3.872825    0.306576
     21          8           0        6.756015   -1.559924    0.948748
     22          8           0        3.434824    4.527848   -0.371378
     23          8           0       -0.445868    2.280638   -1.285258
     24          6           0        0.820713    4.585436   -1.145426
     25          1           0        0.551762    4.570387   -2.203995
     26          1           0       -0.095510    4.700357   -0.565806
     27          1           0        1.499395    5.409072   -0.949266
     28          6           0        5.447433   -3.952954    0.844919
     29          1           0        5.033098   -4.445591    1.726853
     30          1           0        5.308712   -4.615740   -0.010302
     31          1           0        6.502410   -3.748798    0.995698
     32          6           0       -0.833315   -0.451935   -0.573558
     33          6           0       -1.523227   -1.067749   -1.583989
     34         16           0       -1.927158    0.081535    0.682674
     35          6           0       -2.932569   -1.091904   -1.372928
     36          1           0       -1.032759   -1.470242   -2.458574
     37          6           0       -3.347857   -0.504515   -0.188564
     38          8           0       -3.857983   -1.628245   -2.221227
     39          6           0       -4.693272   -0.362423    0.317427
     40          6           0       -3.392334   -2.200461   -3.446501
     41          6           0       -5.112306    0.211818    1.510198
     42         16           0       -6.105578   -0.934724   -0.571148
     43          1           0       -4.279962   -2.557673   -3.965210
     44          1           0       -2.885844   -1.451850   -4.062194
     45          1           0       -2.717997   -3.040290   -3.256860
     46          6           0       -6.524695    0.195918    1.706756
     47          8           0       -4.190134    0.726901    2.374416
     48          6           0       -7.186595   -0.390692    0.666200
     49          1           0       -7.024008    0.598491    2.576197
     50          6           0       -4.667306    1.315980    3.586729
     51          1           0       -8.249446   -0.538668    0.551770
     52          1           0       -5.197557    0.581048    4.199258
     53          1           0       -3.782959    1.661162    4.118825
     54          1           0       -5.323067    2.166486    3.379283
 ---------------------------------------------------------------------

 The electronic state is 1-A.
 Alpha  occ. eigenvalues --  -88.87659 -88.86549 -19.15930 -19.15894 -19.06678
 Alpha  occ. eigenvalues --  -19.06636 -19.06531 -19.06234 -14.34610 -14.34368
 Alpha  occ. eigenvalues --  -10.25112 -10.24924 -10.24909 -10.24885 -10.23568
 Alpha  occ. eigenvalues --  -10.23306 -10.22285 -10.22222 -10.20982 -10.20270
 Alpha  occ. eigenvalues --  -10.20252 -10.19841 -10.18531 -10.18386 -10.18139
 Alpha  occ. eigenvalues --  -10.18030 -10.17940 -10.17422 -10.16860 -10.15988
 Alpha  occ. eigenvalues --  -10.15639 -10.15408 -10.15332 -10.15307 -10.15263
 Alpha  occ. eigenvalues --  -10.15196  -7.96223  -7.95128  -5.92531  -5.92148
 Alpha  occ. eigenvalues --   -5.91793  -5.91449  -5.91066  -5.90668  -1.07235
 Alpha  occ. eigenvalues --   -1.07110  -1.02362  -1.02262  -0.99884  -0.99776
 Alpha  occ. eigenvalues --   -0.91102  -0.90854  -0.88923  -0.87349  -0.86083
 Alpha  occ. eigenvalues --   -0.81246  -0.79029  -0.77429  -0.75458  -0.74200
 Alpha  occ. eigenvalues --   -0.73668  -0.72682  -0.71639  -0.71222  -0.69172
 Alpha  occ. eigenvalues --   -0.68729  -0.67945  -0.66312  -0.62521  -0.61760
 Alpha  occ. eigenvalues --   -0.60923  -0.59765  -0.59002  -0.57277  -0.55044
 Alpha  occ. eigenvalues --   -0.54914  -0.53500  -0.53408  -0.52827  -0.50556
 Alpha  occ. eigenvalues --   -0.49437  -0.48260  -0.47411  -0.47108  -0.47086
 Alpha  occ. eigenvalues --   -0.46615  -0.46055  -0.45771  -0.45441  -0.44799
 Alpha  occ. eigenvalues --   -0.44450  -0.44341  -0.44176  -0.42652  -0.42204
 Alpha  occ. eigenvalues --   -0.41556  -0.41109  -0.40912  -0.40527  -0.40346
 Alpha  occ. eigenvalues --   -0.40127  -0.39987  -0.39208  -0.38237  -0.38210
 Alpha  occ. eigenvalues --   -0.37882  -0.37681  -0.37398  -0.36902  -0.36771
 Alpha  occ. eigenvalues --   -0.36433  -0.36224  -0.35124  -0.34764  -0.34514
 Alpha  occ. eigenvalues --   -0.33320  -0.33043  -0.32713  -0.32383  -0.31633
 Alpha  occ. eigenvalues --   -0.30042  -0.27765  -0.26694  -0.26287  -0.25748
 Alpha  occ. eigenvalues --   -0.25555  -0.25040  -0.24432  -0.24136  -0.23990
 Alpha  occ. eigenvalues --   -0.23561  -0.23252  -0.20846  -0.18239  -0.13188
 Alpha virt. eigenvalues --   -0.04340  -0.03438  -0.01149  -0.00406  -0.00056
 Alpha virt. eigenvalues --    0.00478   0.00586   0.00976   0.01149   0.01448
 Alpha virt. eigenvalues --    0.01786   0.02564   0.02718   0.03086   0.03101

 Mulliken charges:
               1
     1  C    0.395359
     2  C   -0.120906
     3  C    0.088315
     4  C    0.208355
     5  C    0.245122
     6  C   -0.635775
     7  C    0.179727
     8  C   -0.108288
     9  C    0.321565
    10  C   -0.216825
    11  C    0.308564
    12  C    0.179949
    13  C   -0.577626
    14  C   -0.643906
    15  H    0.122349
    16  H    0.123390
    17  H    0.119709
    18  N   -0.134367
    19  N   -0.158593
    20  O   -0.527160
    21  O   -0.514232
    22  O   -0.516301
    23  O   -0.418303
    24  C   -0.192528
    25  H    0.161111
    26  H    0.161701
    27  H    0.168719
    28  C   -0.202050
    29  H    0.160642
    30  H    0.158889
    31  H    0.168677
    32  C    0.232421
    33  C   -0.662293
    34  S   -0.387147
    35  C   -0.214873
    36  H    0.136894
    37  C    0.367930
    38  O   -0.159160
    39  C    0.849870
    40  C   -0.256338
    41  C   -0.001391
    42  S   -0.229593
    43  H    0.172449
    44  H    0.161648
    45  H    0.160717
    46  C   -0.529694
    47  O   -0.173777
    48  C   -0.349781
    49  H    0.157304
    50  C   -0.248028
    51  H    0.184049
    52  H    0.155789
    53  H    0.171064
    54  H    0.156653
 Sum of Mulliken charges =  -2.00000

 Dipole moment (field-independent basis, Debye):
    X=            -27.6072    Y=             -2.9582    Z=              0.5460  Tot=             27.7706
 Quadrupole moment (field-independent basis, Debye-Ang):
   XX=           -377.9729   YY=           -308.3689   ZZ=           -214.8382
   XY=             -7.0109   XZ=            -24.5092   YZ=             22.4680

 Normal termination of Gaussian 16 at Thu Oct 28 14:00:19 2021.
