 Gaussian 16, Revision C.01,
 Gaussian 16:  ES64L-G16RevC.01  3-Jul-2019

 ---------------------------------------------------------------
 # opt=modredundant b3lyp/6-311+g(d,p) scrf=(pcm, solvent=water)
 ---------------------------------------------------------------

 ----------
 NDI_20.pdb
 ----------
 Symbolic Z-matrix:
 Charge = -2 Multiplicity = 1

 SCF Done:  E(RB3LYP) =  -2359.58795998     A.U. after   16 cycles
 SCF Done:  E(RB3LYP) =  -2359.59596931     A.U. after   17 cycles
 SCF Done:  E(RB3LYP) =  -2359.61367393     A.U. after   16 cycles
 SCF Done:  E(RB3LYP) =  -2359.61676137     A.U. after   13 cycles
 SCF Done:  E(RB3LYP) =  -2359.61782797     A.U. after   15 cycles
 SCF Done:  E(RB3LYP) =  -2359.61829764     A.U. after   13 cycles
 SCF Done:  E(RB3LYP) =  -2359.61833232     A.U. after   17 cycles
 SCF Done:  E(RB3LYP) =  -2359.61980261     A.U. after   13 cycles
 SCF Done:  E(RB3LYP) =  -2359.62284122     A.U. after   17 cycles
 SCF Done:  E(RB3LYP) =  -2359.62320601     A.U. after   15 cycles
 SCF Done:  E(RB3LYP) =  -2359.62367378     A.U. after   10 cycles
 SCF Done:  E(RB3LYP) =  -2359.62368222     A.U. after   11 cycles
 SCF Done:  E(RB3LYP) =  -2359.62368490     A.U. after   11 cycles
 SCF Done:  E(RB3LYP) =  -2359.62368542     A.U. after   10 cycles
 SCF Done:  E(RB3LYP) =  -2359.62368546     A.U. after    9 cycles
 SCF Done:  E(RB3LYP) =  -2359.62368554     A.U. after    8 cycles
 SCF Done:  E(RB3LYP) =  -2359.62368555     A.U. after   10 cycles
 SCF Done:  E(RB3LYP) =  -2359.62368553     A.U. after   10 cycles
 SCF Done:  E(RB3LYP) =  -2359.62368553     A.U. after    8 cycles
 SCF Done:  E(RB3LYP) =  -2359.62368553     A.U. after    8 cycles
 Optimization completed.
    -- Stationary point found.

                         Standard orientation:
 ---------------------------------------------------------------------
 Center     Atomic      Atomic             Coordinates (Angstroms)
 Number     Number       Type             X           Y           Z
 ---------------------------------------------------------------------
      1          6           0       -2.699955   -3.003849    0.131228
      2          6           0       -2.344553   -1.620274   -0.000061
      3          6           0       -3.342659   -0.615842    0.084426
      4          6           0       -4.698203   -0.952362    0.301885
      5          6           0       -5.087739   -2.330894    0.442986
      6          6           0       -0.978963   -1.247881   -0.101307
      7          6           0       -2.951961    0.766356   -0.079715
      8          6           0       -1.585210    1.104134   -0.319164
      9          6           0       -0.560248    0.059330   -0.229794
     10          6           0       -1.302931    2.429204   -0.797856
     11          6           0       -3.653395    3.132203   -0.287748
     12          6           0       -3.972220    1.753716   -0.047368
     13          6           0       -5.334564    1.383190    0.194258
     14          6           0       -5.689948    0.078302    0.367018
     15          1           0       -6.720302   -0.205934    0.540270
     16          1           0       -6.075824    2.172350    0.222182
     17          1           0       -0.251800   -2.040461    0.024373
     18          7           0       -2.328578    3.394606   -0.654203
     19          7           0       -4.060378   -3.288374    0.341755
     20          8           0       -1.888318   -3.957804    0.074987
     21          8           0       -6.266994   -2.704699    0.640921
     22          8           0       -4.484024    4.071342   -0.219768
     23          8           0       -0.240708    2.802395   -1.345480
     24          6           0       -1.979405    4.765491   -1.032932
     25          1           0       -1.014182    5.028419   -0.603237
     26          1           0       -1.906003    4.864246   -2.119504
     27          1           0       -2.758408    5.424960   -0.663524
     28          6           0       -4.411786   -4.704634    0.471582
     29          1           0       -4.102838   -5.251723   -0.420308
     30          1           0       -3.904122   -5.143959    1.332311
     31          1           0       -5.486973   -4.773098    0.599910
     32          6           0        0.861755    0.336079   -0.008076
     33          6           0        1.474907    1.454958    0.509024
     34         16           0        2.077586   -0.863461   -0.445315
     35          6           0        2.884681    1.337622    0.609791
     36          1           0        0.924741    2.329002    0.814761
     37          6           0        3.408197    0.141246    0.141044
     38          8           0        3.728634    2.284304    1.116269
     39          6           0        4.783994   -0.286197    0.110749
     40          6           0        3.154495    3.484872    1.639754
     41          6           0        5.312894   -1.475577   -0.376823
     42         16           0        6.099984    0.710705    0.735896
     43          1           0        3.990292    4.084530    1.995537
     44          1           0        2.615496    4.034318    0.863139
     45          1           0        2.480154    3.266649    2.472646
     46          6           0        6.728484   -1.585733   -0.252100
     47          8           0        4.481375   -2.413912   -0.918071
     48          6           0        7.287060   -0.482739    0.328714
     49          1           0        7.304315   -2.439677   -0.578564
     50          6           0        5.068248   -3.621274   -1.408902
     51          1           0        8.328736   -0.296357    0.540168
     52          1           0        5.576614   -4.166024   -0.608009
     53          1           0        4.243504   -4.221281   -1.788683
     54          1           0        5.772607   -3.415202   -2.220146
 ---------------------------------------------------------------------

 The electronic state is 1-A.
 Alpha  occ. eigenvalues --  -88.87553 -88.86477 -19.15848 -19.15772 -19.07064
 Alpha  occ. eigenvalues --  -19.06902 -19.06645 -19.06223 -14.34799 -14.34349
 Alpha  occ. eigenvalues --  -10.25499 -10.25202 -10.25008 -10.24859 -10.23430
 Alpha  occ. eigenvalues --  -10.23162 -10.22246 -10.22130 -10.20935 -10.20082
 Alpha  occ. eigenvalues --  -10.20075 -10.19711 -10.18646 -10.18454 -10.18201
 Alpha  occ. eigenvalues --  -10.17974 -10.17958 -10.17651 -10.16370 -10.15979
 Alpha  occ. eigenvalues --  -10.15862 -10.15717 -10.15487 -10.15478 -10.15421
 Alpha  occ. eigenvalues --  -10.15318  -7.96117  -7.95056  -5.92425  -5.92043
 Alpha  occ. eigenvalues --   -5.91684  -5.91381  -5.91002  -5.90583  -1.07138
 Alpha  occ. eigenvalues --   -1.06995  -1.02711  -1.02325  -1.00293  -0.99850
 Alpha  occ. eigenvalues --   -0.91368  -0.90903  -0.88790  -0.87257  -0.86133
 Alpha  occ. eigenvalues --   -0.81367  -0.79157  -0.77342  -0.75464  -0.74286
 Alpha  occ. eigenvalues --   -0.73403  -0.72956  -0.71602  -0.71217  -0.69114
 Alpha  occ. eigenvalues --   -0.68841  -0.67973  -0.66195  -0.62751  -0.61822
 Alpha  occ. eigenvalues --   -0.61047  -0.60014  -0.58773  -0.57253  -0.54988
 Alpha  occ. eigenvalues --   -0.54832  -0.53621  -0.53261  -0.52918  -0.50803
 Alpha  occ. eigenvalues --   -0.49607  -0.48041  -0.47344  -0.47011  -0.46884
 Alpha  occ. eigenvalues --   -0.46696  -0.46192  -0.45782  -0.45497  -0.44954
 Alpha  occ. eigenvalues --   -0.44481  -0.44308  -0.44134  -0.42678  -0.41914
 Alpha  occ. eigenvalues --   -0.41753  -0.41057  -0.40806  -0.40576  -0.40437
 Alpha  occ. eigenvalues --   -0.40228  -0.40048  -0.39082  -0.38435  -0.38300
 Alpha  occ. eigenvalues --   -0.38213  -0.37718  -0.37494  -0.37071  -0.36921
 Alpha  occ. eigenvalues --   -0.36302  -0.36068  -0.35158  -0.34879  -0.34475
 Alpha  occ. eigenvalues --   -0.33440  -0.32945  -0.32816  -0.32631  -0.31516
 Alpha  occ. eigenvalues --   -0.30338  -0.27968  -0.26729  -0.26514  -0.25868
 Alpha  occ. eigenvalues --   -0.25719  -0.25034  -0.24691  -0.24372  -0.23944
 Alpha  occ. eigenvalues --   -0.23618  -0.22866  -0.20945  -0.17963  -0.13255
 Alpha virt. eigenvalues --   -0.05197  -0.03389  -0.01420  -0.00486  -0.00053
 Alpha virt. eigenvalues --    0.00626   0.00824   0.01025   0.01665   0.01834
 Alpha virt. eigenvalues --    0.02101   0.02548   0.02881   0.03156   0.03224

 Mulliken charges:
               1
     1  C    0.232870
     2  C   -0.132283
     3  C    0.151768
     4  C    0.200140
     5  C    0.185055
     6  C   -0.047281
     7  C    0.256617
     8  C    0.434768
     9  C    0.115004
    10  C   -0.797966
    11  C    0.252138
    12  C    0.092203
    13  C   -0.530433
    14  C   -0.617647
    15  H    0.123662
    16  H    0.124439
    17  H    0.130989
    18  N   -0.040488
    19  N   -0.151917
    20  O   -0.524726
    21  O   -0.499930
    22  O   -0.517482
    23  O   -0.448344
    24  C   -0.174852
    25  H    0.162092
    26  H    0.162092
    27  H    0.166560
    28  C   -0.199140
    29  H    0.159649
    30  H    0.161729
    31  H    0.167648
    32  C   -0.246676
    33  C   -0.421356
    34  S   -0.631729
    35  C   -0.282532
    36  H    0.154206
    37  C    0.649081
    38  O   -0.168682
    39  C    0.849911
    40  C   -0.236833
    41  C    0.039606
    42  S   -0.226649
    43  H    0.172234
    44  H    0.158780
    45  H    0.159015
    46  C   -0.618360
    47  O   -0.167164
    48  C   -0.352913
    49  H    0.156750
    50  C   -0.249393
    51  H    0.183692
    52  H    0.155929
    53  H    0.171061
    54  H    0.155086
 Sum of Mulliken charges =  -2.00000

 Dipole moment (field-independent basis, Debye):
    X=             26.4765    Y=             -0.7961    Z=              1.8365  Tot=             26.5521
 Quadrupole moment (field-independent basis, Debye-Ang):
   XX=           -375.0134   YY=           -288.8558   ZZ=           -235.7708
   XY=            -10.3472   XZ=              5.2275   YZ=             20.0779

 Normal termination of Gaussian 16 at Thu Oct 28 14:14:10 2021.
