 Gaussian 16, Revision C.01,
 Gaussian 16:  ES64L-G16RevC.01  3-Jul-2019

 ---------------------------------------------------------------
 # opt=modredundant b3lyp/6-311+g(d,p) scrf=(pcm, solvent=water)
 ---------------------------------------------------------------

 ------------
 NDI_-175.pdb
 ------------
 Symbolic Z-matrix:
 Charge = -2 Multiplicity = 1

 SCF Done:  E(RB3LYP) =  -2359.55656908     A.U. after   17 cycles
 SCF Done:  E(RB3LYP) =  -2359.59403188     A.U. after   17 cycles
 SCF Done:  E(RB3LYP) =  -2359.60986484     A.U. after   16 cycles
 SCF Done:  E(RB3LYP) =  -2359.61373024     A.U. after   14 cycles
 SCF Done:  E(RB3LYP) =  -2359.61444434     A.U. after   12 cycles
 SCF Done:  E(RB3LYP) =  -2359.61461044     A.U. after   12 cycles
 SCF Done:  E(RB3LYP) =  -2359.61480928     A.U. after   16 cycles
 SCF Done:  E(RB3LYP) =  -2359.61505972     A.U. after   15 cycles
 SCF Done:  E(RB3LYP) =  -2359.61547967     A.U. after   16 cycles
 SCF Done:  E(RB3LYP) =  -2359.61604305     A.U. after   12 cycles
 SCF Done:  E(RB3LYP) =  -2359.62055366     A.U. after   12 cycles
 SCF Done:  E(RB3LYP) =  -2359.62056879     A.U. after   12 cycles
 SCF Done:  E(RB3LYP) =  -2359.62057760     A.U. after   12 cycles
 SCF Done:  E(RB3LYP) =  -2359.62058722     A.U. after   11 cycles
 SCF Done:  E(RB3LYP) =  -2359.62059348     A.U. after   11 cycles
 SCF Done:  E(RB3LYP) =  -2359.62059561     A.U. after   10 cycles
 SCF Done:  E(RB3LYP) =  -2359.62060020     A.U. after   10 cycles
 SCF Done:  E(RB3LYP) =  -2359.62060226     A.U. after    9 cycles
 SCF Done:  E(RB3LYP) =  -2359.62060308     A.U. after   10 cycles
 SCF Done:  E(RB3LYP) =  -2359.62060319     A.U. after    8 cycles
 Optimization completed.
    -- Stationary point found.

                         Standard orientation:
 ---------------------------------------------------------------------
 Center     Atomic      Atomic             Coordinates (Angstroms)
 Number     Number       Type             X           Y           Z
 ---------------------------------------------------------------------
      1          6           0       -3.625407   -2.618323    0.065963
      2          6           0       -2.845613   -1.430492   -0.138440
      3          6           0       -3.412777   -0.155007    0.113755
      4          6           0       -4.744056   -0.023629    0.568986
      5          6           0       -5.551172   -1.195151    0.788686
      6          6           0       -1.472769   -1.536776   -0.480524
      7          6           0       -2.606204    1.018527   -0.127849
      8          6           0       -1.267808    0.884601   -0.604158
      9          6           0       -0.656395   -0.444898   -0.692378
     10          6           0       -0.644007    2.054372   -1.154125
     11          6           0       -2.479635    3.489128   -0.241462
     12          6           0       -3.205527    2.290911    0.070486
     13          6           0       -4.551166    2.392000    0.549875
     14          6           0       -5.297220    1.277350    0.796272
     15          1           0       -6.318150    1.350681    1.149499
     16          1           0       -4.962069    3.383355    0.696325
     17          1           0       -1.054379   -2.533767   -0.470062
     18          7           0       -1.229673    3.303377   -0.843693
     19          7           0       -4.944547   -2.436425    0.516381
     20          8           0       -3.212488   -3.786465   -0.124826
     21          8           0       -6.735802   -1.159302    1.194073
     22          8           0       -2.911297    4.650420   -0.039606
     23          8           0        0.362445    2.057173   -1.900610
     24          6           0       -0.505582    4.492324   -1.298773
     25          1           0        0.558151    4.363500   -1.109140
     26          1           0       -0.644298    4.650069   -2.372337
     27          1           0       -0.893591    5.350865   -0.759332
     28          6           0       -5.731516   -3.655226    0.718910
     29          1           0       -5.772011   -4.233127   -0.205339
     30          1           0       -5.274250   -4.278443    1.489820
     31          1           0       -6.730710   -3.362095    1.023583
     32          6           0        0.792437   -0.702348   -0.708055
     33          6           0        1.415849   -1.928399   -0.886633
     34         16           0        1.954978    0.450894   -0.075608
     35          6           0        2.785165   -1.937445   -0.539423
     36          1           0        0.898359   -2.797607   -1.263915
     37          6           0        3.266190   -0.728610   -0.051040
     38          8           0        3.634691   -3.001402   -0.657429
     39          6           0        4.613302   -0.394299    0.338835
     40          6           0        3.107870   -4.225795   -1.172913
     41          6           0        5.096595    0.801505    0.857629
     42         16           0        5.950181   -1.540706    0.208181
     43          1           0        3.941087   -4.925970   -1.190447
     44          1           0        2.316758   -4.616850   -0.526562
     45          1           0        2.721946   -4.091983   -2.187613
     46          6           0        6.493966    0.800426    1.138820
     47          8           0        4.241161    1.847149    1.058538
     48          6           0        7.084507   -0.394449    0.839655
     49          1           0        7.034223    1.642952    1.545896
     50          6           0        4.784152    3.060982    1.582373
     51          1           0        8.119942   -0.674399    0.958176
     52          1           0        5.539076    3.477499    0.909033
     53          1           0        3.947725    3.752782    1.661458
     54          1           0        5.220427    2.902617    2.573010
 ---------------------------------------------------------------------

 The electronic state is 1-A.
 Alpha  occ. eigenvalues --  -88.87487 -88.86281 -19.15784 -19.15708 -19.07114
 Alpha  occ. eigenvalues --  -19.06965 -19.06681 -19.06360 -14.34827 -14.34405
 Alpha  occ. eigenvalues --  -10.25542 -10.25267 -10.25038 -10.24898 -10.23358
 Alpha  occ. eigenvalues --  -10.23013 -10.22208 -10.22130 -10.20856 -10.20287
 Alpha  occ. eigenvalues --  -10.19836 -10.19654 -10.18657 -10.18502 -10.18194
 Alpha  occ. eigenvalues --  -10.17965 -10.17910 -10.17722 -10.16523 -10.15994
 Alpha  occ. eigenvalues --  -10.15821 -10.15760 -10.15547 -10.15508 -10.15459
 Alpha  occ. eigenvalues --  -10.15351  -7.96052  -7.94835  -5.92360  -5.91978
 Alpha  occ. eigenvalues --   -5.91620  -5.91157  -5.90765  -5.90378  -1.07068
 Alpha  occ. eigenvalues --   -1.06926  -1.02764  -1.02389  -1.00352  -0.99924
 Alpha  occ. eigenvalues --   -0.91406  -0.90994  -0.88711  -0.87223  -0.86147
 Alpha  occ. eigenvalues --   -0.81377  -0.79179  -0.77340  -0.75319  -0.74141
 Alpha  occ. eigenvalues --   -0.73724  -0.72789  -0.71656  -0.71122  -0.69125
 Alpha  occ. eigenvalues --   -0.68773  -0.67991  -0.66265  -0.62679  -0.61907
 Alpha  occ. eigenvalues --   -0.61023  -0.59995  -0.58732  -0.57224  -0.55003
 Alpha  occ. eigenvalues --   -0.54796  -0.53742  -0.53246  -0.52921  -0.50721
 Alpha  occ. eigenvalues --   -0.49800  -0.47647  -0.47299  -0.47101  -0.46982
 Alpha  occ. eigenvalues --   -0.46496  -0.46253  -0.45916  -0.45492  -0.44942
 Alpha  occ. eigenvalues --   -0.44503  -0.44289  -0.44169  -0.42946  -0.42259
 Alpha  occ. eigenvalues --   -0.41306  -0.41060  -0.40923  -0.40592  -0.40361
 Alpha  occ. eigenvalues --   -0.40198  -0.40089  -0.39274  -0.38445  -0.38338
 Alpha  occ. eigenvalues --   -0.38043  -0.37558  -0.37503  -0.37154  -0.37050
 Alpha  occ. eigenvalues --   -0.36251  -0.36025  -0.35328  -0.34783  -0.34428
 Alpha  occ. eigenvalues --   -0.33463  -0.32932  -0.32765  -0.32062  -0.31733
 Alpha  occ. eigenvalues --   -0.30281  -0.27910  -0.26782  -0.26603  -0.25886
 Alpha  occ. eigenvalues --   -0.25800  -0.25101  -0.24600  -0.24445  -0.24006
 Alpha  occ. eigenvalues --   -0.23532  -0.22798  -0.20995  -0.17884  -0.13232
 Alpha virt. eigenvalues --   -0.05308  -0.03311  -0.01576  -0.00551  -0.00091
 Alpha virt. eigenvalues --    0.00630   0.00811   0.01098   0.01669   0.01890
 Alpha virt. eigenvalues --    0.02139   0.02716   0.02786   0.03132   0.03344

 Mulliken charges:
               1
     1  C    0.298008
     2  C   -0.149297
     3  C    0.086632
     4  C    0.216230
     5  C    0.159617
     6  C    0.080072
     7  C    0.081865
     8  C    0.271454
     9  C    0.210691
    10  C   -0.684159
    11  C    0.299858
    12  C    0.065211
    13  C   -0.520026
    14  C   -0.563331
    15  H    0.123690
    16  H    0.124595
    17  H    0.128221
    18  N    0.006282
    19  N   -0.157416
    20  O   -0.518280
    21  O   -0.498378
    22  O   -0.516328
    23  O   -0.451156
    24  C   -0.192239
    25  H    0.165875
    26  H    0.162889
    27  H    0.167155
    28  C   -0.194491
    29  H    0.159548
    30  H    0.161839
    31  H    0.167249
    32  C   -0.006777
    33  C   -0.386166
    34  S   -0.729505
    35  C   -0.520883
    36  H    0.139757
    37  C    0.610558
    38  O   -0.170141
    39  C    0.805806
    40  C   -0.237285
    41  C    0.005950
    42  S   -0.228544
    43  H    0.172282
    44  H    0.157249
    45  H    0.158632
    46  C   -0.534616
    47  O   -0.162071
    48  C   -0.337520
    49  H    0.155897
    50  C   -0.250040
    51  H    0.183033
    52  H    0.156856
    53  H    0.170970
    54  H    0.154677
 Sum of Mulliken charges =  -2.00000

 Dipole moment (field-independent basis, Debye):
    X=             25.1234    Y=             -3.9588    Z=              1.9494  Tot=             25.5079
 Quadrupole moment (field-independent basis, Debye-Ang):
   XX=           -366.2737   YY=           -286.1409   ZZ=           -242.4381
   XY=             15.3134   XZ=             25.1979   YZ=             13.4602

 Normal termination of Gaussian 16 at Thu Oct 28 10:03:06 2021.
