 Gaussian 16, Revision C.01,
 Gaussian 16:  ES64L-G16RevC.01  3-Jul-2019

 ---------------------------------------------------------------
 # opt=modredundant b3lyp/6-311+g(d,p) scrf=(pcm, solvent=water)
 ---------------------------------------------------------------

 ----------
 NDI_75.pdb
 ----------
 Symbolic Z-matrix:
 Charge = -2 Multiplicity = 1

 SCF Done:  E(RB3LYP) =  -2359.60200764     A.U. after   16 cycles
 SCF Done:  E(RB3LYP) =  -2359.62008072     A.U. after   14 cycles
 SCF Done:  E(RB3LYP) =  -2359.62367007     A.U. after   15 cycles
 SCF Done:  E(RB3LYP) =  -2359.62421394     A.U. after   14 cycles
 SCF Done:  E(RB3LYP) =  -2359.62423251     A.U. after   14 cycles
 SCF Done:  E(RB3LYP) =  -2359.62446999     A.U. after   11 cycles
 SCF Done:  E(RB3LYP) =  -2359.62449530     A.U. after   11 cycles
 SCF Done:  E(RB3LYP) =  -2359.62450887     A.U. after   11 cycles
 SCF Done:  E(RB3LYP) =  -2359.62451823     A.U. after   11 cycles
 SCF Done:  E(RB3LYP) =  -2359.62452659     A.U. after   11 cycles
 SCF Done:  E(RB3LYP) =  -2359.62455679     A.U. after   10 cycles
 SCF Done:  E(RB3LYP) =  -2359.62455778     A.U. after    9 cycles
 SCF Done:  E(RB3LYP) =  -2359.62455868     A.U. after    9 cycles
 SCF Done:  E(RB3LYP) =  -2359.62455944     A.U. after    9 cycles
 SCF Done:  E(RB3LYP) =  -2359.62456062     A.U. after    9 cycles
 SCF Done:  E(RB3LYP) =  -2359.62456130     A.U. after    9 cycles
 SCF Done:  E(RB3LYP) =  -2359.62456196     A.U. after    9 cycles
 SCF Done:  E(RB3LYP) =  -2359.62456223     A.U. after    9 cycles
 SCF Done:  E(RB3LYP) =  -2359.62456221     A.U. after    8 cycles
 SCF Done:  E(RB3LYP) =  -2359.62456212     A.U. after    8 cycles
 Optimization completed.
    -- Stationary point found.

                         Standard orientation:
 ---------------------------------------------------------------------
 Center     Atomic      Atomic             Coordinates (Angstroms)
 Number     Number       Type             X           Y           Z
 ---------------------------------------------------------------------
      1          6           0       -3.043089   -2.858327    0.472563
      2          6           0       -2.533831   -1.532060    0.285837
      3          6           0       -3.420908   -0.456913    0.031667
      4          6           0       -4.820789   -0.668139   -0.040471
      5          6           0       -5.363889   -1.982852    0.148424
      6          6           0       -1.132990   -1.283708    0.390137
      7          6           0       -2.877907    0.869624   -0.166281
      8          6           0       -1.468023    1.082882   -0.102512
      9          6           0       -0.595230   -0.032875    0.231029
     10          6           0       -0.953031    2.388521   -0.415686
     11          6           0       -3.291721    3.259664   -0.664272
     12          6           0       -3.780547    1.931649   -0.440630
     13          6           0       -5.192269    1.684151   -0.506709
     14          6           0       -5.696544    0.433722   -0.312986
     15          1           0       -6.761426    0.243859   -0.366238
     16          1           0       -5.844211    2.522154   -0.720541
     17          1           0       -0.489876   -2.116019    0.648394
     18          7           0       -1.897745    3.414665   -0.633343
     19          7           0       -4.437304   -3.014676    0.397729
     20          8           0       -2.336091   -3.871863    0.696871
     21          8           0       -6.590045   -2.249615    0.101392
     22          8           0       -4.026009    4.254180   -0.889342
     23          8           0        0.257517    2.690904   -0.519528
     24          6           0       -1.345595    4.745664   -0.894663
     25          1           0       -0.635296    5.012460   -0.112155
     26          1           0       -0.817489    4.763386   -1.850930
     27          1           0       -2.170483    5.450295   -0.918079
     28          6           0       -4.946451   -4.373364    0.596370
     29          1           0       -4.566353   -5.039166   -0.181010
     30          1           0       -4.618965   -4.759204    1.562771
     31          1           0       -6.029981   -4.333983    0.553975
     32          6           0        0.860754    0.111038    0.468401
     33          6           0        1.510415    0.624296    1.558541
     34         16           0        2.001653   -0.562391   -0.668761
     35          6           0        2.926561    0.506430    1.476658
     36          1           0        0.986251    1.081976    2.385049
     37          6           0        3.390280   -0.116870    0.327350
     38          8           0        3.819551    0.929949    2.418423
     39          6           0        4.754653   -0.399201   -0.051991
     40          6           0        3.308665    1.604888    3.571251
     41          6           0        5.219205   -1.025943   -1.200520
     42         16           0        6.132240    0.047721    0.954885
     43          1           0        4.177157    1.868695    4.171818
     44          1           0        2.770354    2.513631    3.287783
     45          1           0        2.650280    0.950978    4.149996
     46          6           0        6.638339   -1.145113   -1.273262
     47          8           0        4.329348   -1.463574   -2.138532
     48          6           0        7.260370   -0.609720   -0.181668
     49          1           0        7.170539   -1.604265   -2.093777
     50          6           0        4.850615   -2.103259   -3.306235
     51          1           0        8.318469   -0.561565    0.025061
     52          1           0        5.403908   -3.009758   -3.044343
     53          1           0        3.986325   -2.368231   -3.912157
     54          1           0        5.497450   -1.425397   -3.870628
 ---------------------------------------------------------------------

 The electronic state is 1-A.
 Alpha  occ. eigenvalues --  -88.87648 -88.86806 -19.15936 -19.15885 -19.06660
 Alpha  occ. eigenvalues --  -19.06629 -19.06515 -19.06217 -14.34603 -14.34360
 Alpha  occ. eigenvalues --  -10.25093 -10.24917 -10.24890 -10.24883 -10.23540
 Alpha  occ. eigenvalues --  -10.23335 -10.22287 -10.22215 -10.20981 -10.20232
 Alpha  occ. eigenvalues --  -10.20229 -10.19823 -10.18524 -10.18385 -10.18136
 Alpha  occ. eigenvalues --  -10.18024 -10.17941 -10.17474 -10.16757 -10.16000
 Alpha  occ. eigenvalues --  -10.15666 -10.15389 -10.15326 -10.15322 -10.15254
 Alpha  occ. eigenvalues --  -10.15186  -7.96213  -7.95376  -5.92520  -5.92138
 Alpha  occ. eigenvalues --   -5.91782  -5.91693  -5.91308  -5.90928  -1.07230
 Alpha  occ. eigenvalues --   -1.07107  -1.02354  -1.02256  -0.99872  -0.99761
 Alpha  occ. eigenvalues --   -0.91093  -0.90844  -0.88947  -0.87390  -0.86094
 Alpha  occ. eigenvalues --   -0.81241  -0.79030  -0.77408  -0.75491  -0.74245
 Alpha  occ. eigenvalues --   -0.73585  -0.72746  -0.71622  -0.71253  -0.69186
 Alpha  occ. eigenvalues --   -0.68738  -0.67938  -0.66290  -0.62555  -0.61739
 Alpha  occ. eigenvalues --   -0.60912  -0.59810  -0.58977  -0.57278  -0.55042
 Alpha  occ. eigenvalues --   -0.54917  -0.53485  -0.53402  -0.52836  -0.50607
 Alpha  occ. eigenvalues --   -0.49338  -0.48402  -0.47410  -0.47092  -0.47037
 Alpha  occ. eigenvalues --   -0.46637  -0.46047  -0.45759  -0.45440  -0.44800
 Alpha  occ. eigenvalues --   -0.44443  -0.44322  -0.44230  -0.42519  -0.42166
 Alpha  occ. eigenvalues --   -0.41707  -0.41094  -0.40883  -0.40505  -0.40352
 Alpha  occ. eigenvalues --   -0.40119  -0.39987  -0.39155  -0.38243  -0.38173
 Alpha  occ. eigenvalues --   -0.38005  -0.37735  -0.37308  -0.36923  -0.36814
 Alpha  occ. eigenvalues --   -0.36473  -0.36198  -0.35148  -0.34772  -0.34484
 Alpha  occ. eigenvalues --   -0.33332  -0.33032  -0.32769  -0.32361  -0.31641
 Alpha  occ. eigenvalues --   -0.30136  -0.27773  -0.26683  -0.26272  -0.25762
 Alpha  occ. eigenvalues --   -0.25531  -0.25010  -0.24538  -0.24148  -0.23965
 Alpha  occ. eigenvalues --   -0.23585  -0.23176  -0.20840  -0.18225  -0.13180
 Alpha virt. eigenvalues --   -0.04291  -0.03374  -0.01273  -0.00385  -0.00038
 Alpha virt. eigenvalues --    0.00486   0.00555   0.01021   0.01164   0.01413
 Alpha virt. eigenvalues --    0.01777   0.02567   0.02671   0.03053   0.03168

 Mulliken charges:
               1
     1  C    0.425092
     2  C   -0.105562
     3  C    0.139444
     4  C    0.145855
     5  C    0.236147
     6  C   -0.561177
     7  C    0.197028
     8  C   -0.019312
     9  C    0.484568
    10  C   -0.405043
    11  C    0.205774
    12  C    0.126745
    13  C   -0.555024
    14  C   -0.640600
    15  H    0.121866
    16  H    0.122650
    17  H    0.121756
    18  N   -0.160807
    19  N   -0.161524
    20  O   -0.528127
    21  O   -0.514421
    22  O   -0.516848
    23  O   -0.375166
    24  C   -0.211671
    25  H    0.160402
    26  H    0.161181
    27  H    0.168012
    28  C   -0.199588
    29  H    0.159625
    30  H    0.159511
    31  H    0.167785
    32  C    0.067686
    33  C   -0.552614
    34  S   -0.266936
    35  C   -0.194038
    36  H    0.135411
    37  C    0.397594
    38  O   -0.176696
    39  C    0.730516
    40  C   -0.233441
    41  C    0.013412
    42  S   -0.251396
    43  H    0.171979
    44  H    0.161687
    45  H    0.158882
    46  C   -0.545041
    47  O   -0.174229
    48  C   -0.367217
    49  H    0.157062
    50  C   -0.248602
    51  H    0.183694
    52  H    0.155961
    53  H    0.171015
    54  H    0.156741
 Sum of Mulliken charges =  -2.00000

 Dipole moment (field-independent basis, Debye):
    X=             27.9028    Y=             -1.6224    Z=              1.4227  Tot=             27.9861
 Quadrupole moment (field-independent basis, Debye-Ang):
   XX=           -381.9970   YY=           -307.3292   ZZ=           -214.3334
   XY=             -7.1257   XZ=            -15.0451   YZ=             27.9531

 Normal termination of Gaussian 16 at Thu Oct 28 12:28:54 2021.
