 Gaussian 16, Revision C.01,
 Gaussian 16:  ES64L-G16RevC.01  3-Jul-2019

 ---------------------------------------------------------------
 # opt=modredundant b3lyp/6-311+g(d,p) scrf=(pcm, solvent=water)
 ---------------------------------------------------------------

 -----------
 NDI_-65.pdb
 -----------
 Symbolic Z-matrix:
 Charge = -2 Multiplicity = 1

 SCF Done:  E(RB3LYP) =  -2359.60548389     A.U. after   16 cycles
 SCF Done:  E(RB3LYP) =  -2359.62215191     A.U. after   14 cycles
 SCF Done:  E(RB3LYP) =  -2359.62462517     A.U. after   14 cycles
 SCF Done:  E(RB3LYP) =  -2359.62476182     A.U. after   12 cycles
 SCF Done:  E(RB3LYP) =  -2359.62486341     A.U. after   12 cycles
 SCF Done:  E(RB3LYP) =  -2359.62492398     A.U. after   11 cycles
 SCF Done:  E(RB3LYP) =  -2359.62492815     A.U. after   11 cycles
 SCF Done:  E(RB3LYP) =  -2359.62493537     A.U. after   10 cycles
 SCF Done:  E(RB3LYP) =  -2359.62493906     A.U. after   10 cycles
 SCF Done:  E(RB3LYP) =  -2359.62494197     A.U. after   10 cycles
 SCF Done:  E(RB3LYP) =  -2359.62497317     A.U. after   12 cycles
 SCF Done:  E(RB3LYP) =  -2359.62497720     A.U. after   10 cycles
 SCF Done:  E(RB3LYP) =  -2359.62497465     A.U. after   10 cycles
 SCF Done:  E(RB3LYP) =  -2359.62497945     A.U. after   11 cycles
 SCF Done:  E(RB3LYP) =  -2359.62498030     A.U. after   10 cycles
 SCF Done:  E(RB3LYP) =  -2359.62498041     A.U. after    9 cycles
 SCF Done:  E(RB3LYP) =  -2359.62497941     A.U. after    9 cycles
 SCF Done:  E(RB3LYP) =  -2359.62498102     A.U. after    9 cycles
 SCF Done:  E(RB3LYP) =  -2359.62498084     A.U. after    9 cycles
 SCF Done:  E(RB3LYP) =  -2359.62498091     A.U. after    8 cycles
 Optimization completed.
    -- Stationary point found.

                         Standard orientation:
 ---------------------------------------------------------------------
 Center     Atomic      Atomic             Coordinates (Angstroms)
 Number     Number       Type             X           Y           Z
 ---------------------------------------------------------------------
      1          6           0        2.967602   -2.881118    0.497428
      2          6           0        2.491179   -1.547516    0.277571
      3          6           0        3.408610   -0.490415    0.054772
      4          6           0        4.805604   -0.727214    0.044699
      5          6           0        5.316004   -2.050026    0.269612
      6          6           0        1.093612   -1.271092    0.333264
      7          6           0        2.899003    0.843164   -0.180162
      8          6           0        1.491861    1.082052   -0.179275
      9          6           0        0.586090   -0.010093    0.146982
     10          6           0        1.014607    2.380623   -0.571926
     11          6           0        3.375747    3.214223   -0.710171
     12          6           0        3.831416    1.883634   -0.434910
     13          6           0        5.239513    1.611149   -0.435459
     14          6           0        5.712440    0.355027   -0.202166
     15          1           0        6.774876    0.145560   -0.205554
     16          1           0        5.914446    2.435034   -0.631618
     17          1           0        0.428832   -2.085066    0.594768
     18          7           0        1.985218    3.391199   -0.751209
     19          7           0        4.361103   -3.062361    0.488694
     20          8           0        2.233046   -3.879695    0.697264
     21          8           0        6.537668   -2.338546    0.277763
     22          8           0        4.136439    4.190994   -0.924096
     23          8           0       -0.180986    2.688897   -0.778626
     24          6           0        1.470699    4.723826   -1.073940
     25          1           0        1.063084    4.749085   -2.087946
     26          1           0        0.671473    4.985774   -0.381830
     27          1           0        2.292659    5.428194   -0.996201
     28          6           0        4.837055   -4.427124    0.725026
     29          1           0        4.439202   -4.803887    1.668094
     30          1           0        4.501788   -5.091496   -0.074189
     31          1           0        5.921476   -4.403022    0.755080
     32          6           0       -0.861802    0.179482    0.378053
     33          6           0       -1.495810    0.871499    1.376281
     34         16           0       -2.021924   -0.652668   -0.627626
     35          6           0       -2.911870    0.749267    1.333164
     36          1           0       -0.958790    1.453991    2.110616
     37          6           0       -3.394723   -0.048446    0.305045
     38          8           0       -3.790544    1.323106    2.206402
     39          6           0       -4.764829   -0.379153   -0.006535
     40          6           0       -3.262266    2.176709    3.225005
     41          6           0       -5.248198   -1.178730   -1.033878
     42         16           0       -6.126785    0.232527    0.933061
     43          1           0       -4.121648    2.539202    3.785939
     44          1           0       -2.596625    1.624563    3.894411
     45          1           0       -2.726639    3.024161    2.788182
     46          6           0       -6.668603   -1.298683   -1.068342
     47          8           0       -4.373152   -1.765643   -1.902016
     48          6           0       -7.273507   -0.591081   -0.069007
     49          1           0       -7.214101   -1.879680   -1.797879
     50          6           0       -4.912515   -2.592438   -2.936183
     51          1           0       -8.328466   -0.503291    0.140644
     52          1           0       -5.568897   -2.018607   -3.596763
     53          1           0       -4.057940   -2.957752   -3.502420
     54          1           0       -5.460899   -3.440443   -2.515908
 ---------------------------------------------------------------------

 The electronic state is 1-A.
 Alpha  occ. eigenvalues --  -88.87625 -88.86814 -19.15917 -19.15864 -19.06716
 Alpha  occ. eigenvalues --  -19.06664 -19.06543 -19.06236 -14.34629 -14.34364
 Alpha  occ. eigenvalues --  -10.25148 -10.24956 -10.24912 -10.24901 -10.23507
 Alpha  occ. eigenvalues --  -10.23319 -10.22278 -10.22200 -10.20969 -10.20191
 Alpha  occ. eigenvalues --  -10.20178 -10.19793 -10.18540 -10.18408 -10.18142
 Alpha  occ. eigenvalues --  -10.18008 -10.17949 -10.17503 -10.16687 -10.15969
 Alpha  occ. eigenvalues --  -10.15717 -10.15437 -10.15350 -10.15345 -10.15278
 Alpha  occ. eigenvalues --  -10.15209  -7.96189  -7.95383  -5.92497  -5.92114
 Alpha  occ. eigenvalues --   -5.91758  -5.91700  -5.91316  -5.90935  -1.07209
 Alpha  occ. eigenvalues --   -1.07088  -1.02401  -1.02271  -0.99929  -0.99784
 Alpha  occ. eigenvalues --   -0.91129  -0.90859  -0.88928  -0.87384  -0.86108
 Alpha  occ. eigenvalues --   -0.81270  -0.79052  -0.77395  -0.75487  -0.74252
 Alpha  occ. eigenvalues --   -0.73561  -0.72789  -0.71610  -0.71256  -0.69178
 Alpha  occ. eigenvalues --   -0.68758  -0.67940  -0.66274  -0.62588  -0.61752
 Alpha  occ. eigenvalues --   -0.60937  -0.59851  -0.58936  -0.57267  -0.55035
 Alpha  occ. eigenvalues --   -0.54906  -0.53489  -0.53390  -0.52851  -0.50644
 Alpha  occ. eigenvalues --   -0.49383  -0.48344  -0.47397  -0.47080  -0.47010
 Alpha  occ. eigenvalues --   -0.46649  -0.46066  -0.45767  -0.45448  -0.44824
 Alpha  occ. eigenvalues --   -0.44441  -0.44302  -0.44240  -0.42531  -0.42122
 Alpha  occ. eigenvalues --   -0.41729  -0.41112  -0.40869  -0.40481  -0.40383
 Alpha  occ. eigenvalues --   -0.40158  -0.39989  -0.39138  -0.38276  -0.38185
 Alpha  occ. eigenvalues --   -0.38074  -0.37715  -0.37310  -0.36958  -0.36835
 Alpha  occ. eigenvalues --   -0.36470  -0.36188  -0.35132  -0.34852  -0.34459
 Alpha  occ. eigenvalues --   -0.33338  -0.33010  -0.32767  -0.32384  -0.31682
 Alpha  occ. eigenvalues --   -0.30196  -0.27796  -0.26690  -0.26313  -0.25805
 Alpha  occ. eigenvalues --   -0.25546  -0.24998  -0.24603  -0.24144  -0.23932
 Alpha  occ. eigenvalues --   -0.23670  -0.23079  -0.20859  -0.18178  -0.13194
 Alpha virt. eigenvalues --   -0.04421  -0.03340  -0.01322  -0.00411  -0.00035
 Alpha virt. eigenvalues --    0.00567   0.00642   0.01001   0.01174   0.01479
 Alpha virt. eigenvalues --    0.01833   0.02587   0.02651   0.03067   0.03171

 Mulliken charges:
               1
     1  C    0.405546
     2  C   -0.160909
     3  C    0.105739
     4  C    0.152266
     5  C    0.226761
     6  C   -0.533153
     7  C    0.206729
     8  C    0.031730
     9  C    0.461139
    10  C   -0.393384
    11  C    0.210106
    12  C    0.101357
    13  C   -0.528369
    14  C   -0.626595
    15  H    0.122061
    16  H    0.122794
    17  H    0.127006
    18  N   -0.143830
    19  N   -0.160419
    20  O   -0.527951
    21  O   -0.512528
    22  O   -0.517392
    23  O   -0.385721
    24  C   -0.204827
    25  H    0.161822
    26  H    0.161388
    27  H    0.167380
    28  C   -0.199901
    29  H    0.159575
    30  H    0.160031
    31  H    0.167822
    32  C    0.059327
    33  C   -0.492549
    34  S   -0.377471
    35  C   -0.222211
    36  H    0.136884
    37  C    0.502173
    38  O   -0.175195
    39  C    0.721072
    40  C   -0.233124
    41  C   -0.002699
    42  S   -0.248646
    43  H    0.171752
    44  H    0.158488
    45  H    0.161343
    46  C   -0.560255
    47  O   -0.171573
    48  C   -0.357835
    49  H    0.156962
    50  C   -0.249637
    51  H    0.183569
    52  H    0.156317
    53  H    0.170903
    54  H    0.156133
 Sum of Mulliken charges =  -2.00000

 Dipole moment (field-independent basis, Debye):
    X=            -27.6579    Y=             -1.2990    Z=              1.6749  Tot=             27.7390
 Quadrupole moment (field-independent basis, Debye-Ang):
   XX=           -381.5268   YY=           -301.8605   ZZ=           -220.0096
   XY=              8.5828   XZ=             11.8206   YZ=             31.3024

 Normal termination of Gaussian 16 at Thu Oct 28 12:49:51 2021.
