 Gaussian 16, Revision C.01,
 Gaussian 16:  ES64L-G16RevC.01  3-Jul-2019

 ---------------------------------------------------------------
 # opt=modredundant b3lyp/6-311+g(d,p) scrf=(pcm, solvent=water)
 ---------------------------------------------------------------

 -----------
 NDI_-20.pdb
 -----------
 Symbolic Z-matrix:
 Charge = -2 Multiplicity = 1

 SCF Done:  E(RB3LYP) =  -2359.59840758     A.U. after   17 cycles
 SCF Done:  E(RB3LYP) =  -2359.60478655     A.U. after   17 cycles
 SCF Done:  E(RB3LYP) =  -2359.61729677     A.U. after   16 cycles
 SCF Done:  E(RB3LYP) =  -2359.62017432     A.U. after   16 cycles
 SCF Done:  E(RB3LYP) =  -2359.62218726     A.U. after   16 cycles
 SCF Done:  E(RB3LYP) =  -2359.62309977     A.U. after   14 cycles
 SCF Done:  E(RB3LYP) =  -2359.62350493     A.U. after   14 cycles
 SCF Done:  E(RB3LYP) =  -2359.62356463     A.U. after   13 cycles
 SCF Done:  E(RB3LYP) =  -2359.62358842     A.U. after   11 cycles
 SCF Done:  E(RB3LYP) =  -2359.62360950     A.U. after   11 cycles
 SCF Done:  E(RB3LYP) =  -2359.62368606     A.U. after    9 cycles
 SCF Done:  E(RB3LYP) =  -2359.62368618     A.U. after    8 cycles
 SCF Done:  E(RB3LYP) =  -2359.62368622     A.U. after    9 cycles
 SCF Done:  E(RB3LYP) =  -2359.62368622     A.U. after    9 cycles
 SCF Done:  E(RB3LYP) =  -2359.62368623     A.U. after    7 cycles
 SCF Done:  E(RB3LYP) =  -2359.62368622     A.U. after    8 cycles
 SCF Done:  E(RB3LYP) =  -2359.62368624     A.U. after    8 cycles
 SCF Done:  E(RB3LYP) =  -2359.62368623     A.U. after    8 cycles
 SCF Done:  E(RB3LYP) =  -2359.62368623     A.U. after    7 cycles
 SCF Done:  E(RB3LYP) =  -2359.62368621     A.U. after    7 cycles
 Optimization completed.
    -- Stationary point found.

                         Standard orientation:
 ---------------------------------------------------------------------
 Center     Atomic      Atomic             Coordinates (Angstroms)
 Number     Number       Type             X           Y           Z
 ---------------------------------------------------------------------
      1          6           0        2.699926   -3.003787    0.131987
      2          6           0        2.344578   -1.620223    0.000358
      3          6           0        3.342726   -0.615797    0.084311
      4          6           0        4.698321   -0.952345    0.301440
      5          6           0        5.087826   -2.330852    0.442752
      6          6           0        0.978978   -1.247795   -0.100630
      7          6           0        2.952002    0.766387   -0.079865
      8          6           0        1.585194    1.104190   -0.318946
      9          6           0        0.560260    0.059398   -0.229293
     10          6           0        1.302805    2.429271   -0.797584
     11          6           0        3.653456    3.132219   -0.288227
     12          6           0        3.972289    1.753730   -0.047874
     13          6           0        5.334688    1.383189    0.193436
     14          6           0        5.690095    0.078316    0.366240
     15          1           0        6.720499   -0.205898    0.539249
     16          1           0        6.075976    2.172335    0.221093
     17          1           0        0.251828   -2.040340    0.025382
     18          7           0        2.328524    3.394659   -0.654283
     19          7           0        4.060472   -3.288358    0.341709
     20          8           0        1.888122   -3.957650    0.076610
     21          8           0        6.267101   -2.704652    0.640626
     22          8           0        4.484154    4.071332   -0.220511
     23          8           0        0.240435    2.802493   -1.344868
     24          6           0        1.979219    4.765545   -1.032911
     25          1           0        1.905067    4.864205   -2.119442
     26          1           0        1.014378    5.028701   -0.602507
     27          1           0        2.758605    5.424896   -0.664114
     28          6           0        4.412008   -4.704589    0.471543
     29          1           0        3.909286   -5.142704    1.335854
     30          1           0        4.097559   -5.252573   -0.417795
     31          1           0        5.487868   -4.773326    0.593983
     32          6           0       -0.861743    0.336111   -0.007515
     33          6           0       -1.475011    1.454951    0.509497
     34         16           0       -2.077455   -0.863569   -0.444764
     35          6           0       -2.884797    1.337488    0.610225
     36          1           0       -0.924938    2.329068    0.815185
     37          6           0       -3.408182    0.141061    0.141472
     38          8           0       -3.728853    2.284096    1.116620
     39          6           0       -4.783966   -0.286434    0.110922
     40          6           0       -3.154882    3.484747    1.640065
     41          6           0       -5.312755   -1.475835   -0.376727
     42         16           0       -6.100085    0.710481    0.735743
     43          1           0       -3.990760    4.084325    1.995793
     44          1           0       -2.480555    3.266652    2.473005
     45          1           0       -2.615903    4.034211    0.863448
     46          6           0       -6.728382   -1.585951   -0.252378
     47          8           0       -4.481084   -2.414351   -0.917412
     48          6           0       -7.287089   -0.482925    0.328255
     49          1           0       -7.304148   -2.439893   -0.578964
     50          6           0       -5.068273   -3.620102   -1.411810
     51          1           0       -8.328812   -0.296515    0.539452
     52          1           0       -5.771457   -3.411559   -2.223442
     53          1           0       -4.243515   -4.219870   -1.791941
     54          1           0       -5.578062   -4.166356   -0.612844
 ---------------------------------------------------------------------

 The electronic state is 1-A.
 Alpha  occ. eigenvalues --  -88.87552 -88.86477 -19.15848 -19.15772 -19.07063
 Alpha  occ. eigenvalues --  -19.06902 -19.06645 -19.06223 -14.34799 -14.34349
 Alpha  occ. eigenvalues --  -10.25499 -10.25202 -10.25009 -10.24859 -10.23430
 Alpha  occ. eigenvalues --  -10.23162 -10.22246 -10.22130 -10.20935 -10.20082
 Alpha  occ. eigenvalues --  -10.20074 -10.19711 -10.18646 -10.18454 -10.18201
 Alpha  occ. eigenvalues --  -10.17973 -10.17958 -10.17651 -10.16370 -10.15978
 Alpha  occ. eigenvalues --  -10.15862 -10.15716 -10.15487 -10.15478 -10.15421
 Alpha  occ. eigenvalues --  -10.15317  -7.96117  -7.95055  -5.92425  -5.92043
 Alpha  occ. eigenvalues --   -5.91684  -5.91380  -5.91002  -5.90583  -1.07138
 Alpha  occ. eigenvalues --   -1.06996  -1.02711  -1.02325  -1.00292  -0.99850
 Alpha  occ. eigenvalues --   -0.91368  -0.90903  -0.88790  -0.87257  -0.86133
 Alpha  occ. eigenvalues --   -0.81367  -0.79157  -0.77342  -0.75464  -0.74286
 Alpha  occ. eigenvalues --   -0.73403  -0.72955  -0.71602  -0.71217  -0.69114
 Alpha  occ. eigenvalues --   -0.68841  -0.67973  -0.66195  -0.62750  -0.61822
 Alpha  occ. eigenvalues --   -0.61047  -0.60014  -0.58772  -0.57253  -0.54989
 Alpha  occ. eigenvalues --   -0.54832  -0.53621  -0.53261  -0.52918  -0.50803
 Alpha  occ. eigenvalues --   -0.49607  -0.48041  -0.47344  -0.47011  -0.46884
 Alpha  occ. eigenvalues --   -0.46696  -0.46192  -0.45782  -0.45497  -0.44954
 Alpha  occ. eigenvalues --   -0.44481  -0.44308  -0.44134  -0.42678  -0.41915
 Alpha  occ. eigenvalues --   -0.41753  -0.41056  -0.40806  -0.40575  -0.40438
 Alpha  occ. eigenvalues --   -0.40228  -0.40047  -0.39081  -0.38436  -0.38300
 Alpha  occ. eigenvalues --   -0.38212  -0.37719  -0.37495  -0.37069  -0.36921
 Alpha  occ. eigenvalues --   -0.36303  -0.36069  -0.35158  -0.34879  -0.34476
 Alpha  occ. eigenvalues --   -0.33439  -0.32947  -0.32815  -0.32631  -0.31515
 Alpha  occ. eigenvalues --   -0.30339  -0.27968  -0.26729  -0.26514  -0.25868
 Alpha  occ. eigenvalues --   -0.25719  -0.25034  -0.24691  -0.24372  -0.23944
 Alpha  occ. eigenvalues --   -0.23618  -0.22866  -0.20945  -0.17963  -0.13254
 Alpha virt. eigenvalues --   -0.05197  -0.03389  -0.01420  -0.00486  -0.00053
 Alpha virt. eigenvalues --    0.00626   0.00824   0.01025   0.01665   0.01834
 Alpha virt. eigenvalues --    0.02101   0.02548   0.02881   0.03157   0.03224

 Mulliken charges:
               1
     1  C    0.232933
     2  C   -0.132098
     3  C    0.152057
     4  C    0.199561
     5  C    0.185512
     6  C   -0.046867
     7  C    0.256736
     8  C    0.434846
     9  C    0.114637
    10  C   -0.798332
    11  C    0.252099
    12  C    0.092049
    13  C   -0.530367
    14  C   -0.617313
    15  H    0.123663
    16  H    0.124438
    17  H    0.131002
    18  N   -0.040577
    19  N   -0.151977
    20  O   -0.524716
    21  O   -0.499967
    22  O   -0.517475
    23  O   -0.448328
    24  C   -0.174832
    25  H    0.162095
    26  H    0.162088
    27  H    0.166561
    28  C   -0.199320
    29  H    0.161810
    30  H    0.159598
    31  H    0.167656
    32  C   -0.246547
    33  C   -0.421523
    34  S   -0.632033
    35  C   -0.282618
    36  H    0.154206
    37  C    0.649383
    38  O   -0.168653
    39  C    0.849922
    40  C   -0.236831
    41  C    0.039450
    42  S   -0.226583
    43  H    0.172234
    44  H    0.159009
    45  H    0.158785
    46  C   -0.618406
    47  O   -0.167172
    48  C   -0.352937
    49  H    0.156752
    50  C   -0.249376
    51  H    0.183692
    52  H    0.155115
    53  H    0.171063
    54  H    0.155896
 Sum of Mulliken charges =  -2.00000

 Dipole moment (field-independent basis, Debye):
    X=            -26.4774    Y=             -0.7935    Z=              1.8273  Tot=             26.5522
 Quadrupole moment (field-independent basis, Debye-Ang):
   XX=           -375.0172   YY=           -288.8674   ZZ=           -235.7519
   XY=             10.3304   XZ=             -5.1940   YZ=             20.1148

 Normal termination of Gaussian 16 at Thu Oct 28 13:25:05 2021.
