 Gaussian 16, Revision C.01,
 Gaussian 16:  ES64L-G16RevC.01  3-Jul-2019

 ---------------------------------------------------------------
 # opt=modredundant b3lyp/6-311+g(d,p) scrf=(pcm, solvent=water)
 ---------------------------------------------------------------

 ------------
 NDI_-125.pdb
 ------------
 Symbolic Z-matrix:
 Charge = -2 Multiplicity = 1

 SCF Done:  E(RB3LYP) =  -2359.59939409     A.U. after   16 cycles
 SCF Done:  E(RB3LYP) =  -2359.61784802     A.U. after   16 cycles
 SCF Done:  E(RB3LYP) =  -2359.62288284     A.U. after   15 cycles
 SCF Done:  E(RB3LYP) =  -2359.62437691     A.U. after   15 cycles
 SCF Done:  E(RB3LYP) =  -2359.62479722     A.U. after   16 cycles
 SCF Done:  E(RB3LYP) =  -2359.62495060     A.U. after   13 cycles
 SCF Done:  E(RB3LYP) =  -2359.62518019     A.U. after   13 cycles
 SCF Done:  E(RB3LYP) =  -2359.62520663     A.U. after   12 cycles
 SCF Done:  E(RB3LYP) =  -2359.62521801     A.U. after   10 cycles
 SCF Done:  E(RB3LYP) =  -2359.62522608     A.U. after   10 cycles
 SCF Done:  E(RB3LYP) =  -2359.62521328     A.U. after   11 cycles
 SCF Done:  E(RB3LYP) =  -2359.62526664     A.U. after   13 cycles
 SCF Done:  E(RB3LYP) =  -2359.62526945     A.U. after   10 cycles
 SCF Done:  E(RB3LYP) =  -2359.62526982     A.U. after    8 cycles
 SCF Done:  E(RB3LYP) =  -2359.62526993     A.U. after    9 cycles
 SCF Done:  E(RB3LYP) =  -2359.62526997     A.U. after    8 cycles
 SCF Done:  E(RB3LYP) =  -2359.62526999     A.U. after   10 cycles
 SCF Done:  E(RB3LYP) =  -2359.62527001     A.U. after   10 cycles
 SCF Done:  E(RB3LYP) =  -2359.62527003     A.U. after    9 cycles
 SCF Done:  E(RB3LYP) =  -2359.62527005     A.U. after    9 cycles
 Optimization completed.
    -- Stationary point found.

                         Standard orientation:
 ---------------------------------------------------------------------
 Center     Atomic      Atomic             Coordinates (Angstroms)
 Number     Number       Type             X           Y           Z
 ---------------------------------------------------------------------
      1          6           0       -3.438579   -2.718350    0.365786
      2          6           0       -2.746404   -1.496095    0.081952
      3          6           0       -3.434471   -0.257993    0.138833
      4          6           0       -4.807916   -0.200791    0.481568
      5          6           0       -5.528485   -1.406480    0.779786
      6          6           0       -1.348129   -1.515798   -0.197205
      7          6           0       -2.717259    0.957585   -0.178289
      8          6           0       -1.336961    0.900425   -0.534564
      9          6           0       -0.638095   -0.375035   -0.475275
     10          6           0       -0.709094    2.090657   -1.038820
     11          6           0       -2.776292    3.409325   -0.516283
     12          6           0       -3.429810    2.185441   -0.155491
     13          6           0       -4.816977    2.210599    0.208228
     14          6           0       -5.483266    1.063153    0.518169
     15          1           0       -6.532352    1.079246    0.786250
     16          1           0       -5.319939    3.169715    0.220872
     17          1           0       -0.830731   -2.464016   -0.122870
     18          7           0       -1.444677    3.292186   -0.942394
     19          7           0       -4.800481   -2.609830    0.695460
     20          8           0       -2.915491   -3.859622    0.340431
     21          8           0       -6.742262   -1.438031    1.097503
     22          8           0       -3.327501    4.537786   -0.490074
     23          8           0        0.425345    2.148877   -1.565661
     24          6           0       -0.757716    4.502130   -1.399541
     25          1           0        0.220009    4.574699   -0.923975
     26          1           0       -0.606732    4.475404   -2.481602
     27          1           0       -1.374327    5.355863   -1.137985
     28          6           0       -5.499607   -3.865887    0.975941
     29          1           0       -5.402826   -4.545276    0.128141
     30          1           0       -5.069037   -4.354169    1.852608
     31          1           0       -6.544253   -3.634418    1.156466
     32          6           0        0.826591   -0.518472   -0.593870
     33          6           0        1.527549   -1.299672   -1.476230
     34         16           0        1.905564    0.194883    0.585811
     35          6           0        2.930777   -1.310074   -1.231431
     36          1           0        1.047986   -1.831972   -2.284959
     37          6           0        3.332375   -0.546969   -0.146458
     38          8           0        3.864496   -1.984212   -1.964586
     39          6           0        4.670261   -0.338727    0.355654
     40          6           0        3.414576   -2.738824   -3.093043
     41          6           0        5.074378    0.391833    1.465446
     42         16           0        6.093453   -1.029228   -0.425545
     43          1           0        4.306873   -3.184327   -3.528829
     44          1           0        2.724246   -3.529928   -2.787064
     45          1           0        2.931571   -2.092089   -3.830933
     46          6           0        6.483771    0.401336    1.682483
     47          8           0        4.141505    1.019048    2.239580
     48          6           0        7.158688   -0.322436    0.741376
     49          1           0        6.972017    0.917374    2.496483
     50          6           0        4.603234    1.771261    3.364292
     51          1           0        8.222428   -0.487439    0.664815
     52          1           0        5.262232    2.585528    3.049413
     53          1           0        3.712233    2.185939    3.831774
     54          1           0        5.124862    1.129268    4.080032
 ---------------------------------------------------------------------

 The electronic state is 1-A.
 Alpha  occ. eigenvalues --  -88.87638 -88.86502 -19.15907 -19.15879 -19.06736
 Alpha  occ. eigenvalues --  -19.06670 -19.06572 -19.06277 -14.34633 -14.34378
 Alpha  occ. eigenvalues --  -10.25172 -10.24962 -10.24953 -10.24889 -10.23544
 Alpha  occ. eigenvalues --  -10.23286 -10.22275 -10.22213 -10.20967 -10.20243
 Alpha  occ. eigenvalues --  -10.20232 -10.19818 -10.18545 -10.18414 -10.18129
 Alpha  occ. eigenvalues --  -10.18015 -10.17949 -10.17413 -10.16824 -10.15905
 Alpha  occ. eigenvalues --  -10.15707 -10.15460 -10.15365 -10.15343 -10.15300
 Alpha  occ. eigenvalues --  -10.15229  -7.96202  -7.95080  -5.92510  -5.92127
 Alpha  occ. eigenvalues --   -5.91772  -5.91402  -5.91020  -5.90617  -1.07212
 Alpha  occ. eigenvalues --   -1.07095  -1.02409  -1.02287  -0.99943  -0.99812
 Alpha  occ. eigenvalues --   -0.91134  -0.90886  -0.88898  -0.87339  -0.86098
 Alpha  occ. eigenvalues --   -0.81277  -0.79054  -0.77424  -0.75442  -0.74191
 Alpha  occ. eigenvalues --   -0.73683  -0.72699  -0.71640  -0.71219  -0.69161
 Alpha  occ. eigenvalues --   -0.68741  -0.67948  -0.66314  -0.62541  -0.61781
 Alpha  occ. eigenvalues --   -0.60943  -0.59800  -0.58972  -0.57272  -0.55040
 Alpha  occ. eigenvalues --   -0.54902  -0.53516  -0.53398  -0.52841  -0.50582
 Alpha  occ. eigenvalues --   -0.49498  -0.48166  -0.47396  -0.47105  -0.47076
 Alpha  occ. eigenvalues --   -0.46616  -0.46077  -0.45788  -0.45452  -0.44822
 Alpha  occ. eigenvalues --   -0.44453  -0.44343  -0.44166  -0.42709  -0.42209
 Alpha  occ. eigenvalues --   -0.41502  -0.41146  -0.40909  -0.40515  -0.40377
 Alpha  occ. eigenvalues --   -0.40164  -0.39989  -0.39218  -0.38281  -0.38223
 Alpha  occ. eigenvalues --   -0.37895  -0.37666  -0.37422  -0.36915  -0.36805
 Alpha  occ. eigenvalues --   -0.36403  -0.36225  -0.35101  -0.34858  -0.34484
 Alpha  occ. eigenvalues --   -0.33327  -0.33030  -0.32707  -0.32392  -0.31676
 Alpha  occ. eigenvalues --   -0.30069  -0.27778  -0.26705  -0.26333  -0.25771
 Alpha  occ. eigenvalues --   -0.25592  -0.25036  -0.24485  -0.24138  -0.23943
 Alpha  occ. eigenvalues --   -0.23628  -0.23217  -0.20861  -0.18199  -0.13206
 Alpha virt. eigenvalues --   -0.04460  -0.03417  -0.01208  -0.00446  -0.00056
 Alpha virt. eigenvalues --    0.00545   0.00691   0.00970   0.01137   0.01490
 Alpha virt. eigenvalues --    0.01861   0.02562   0.02740   0.03081   0.03133

 Mulliken charges:
               1
     1  C    0.376731
     2  C   -0.177848
     3  C    0.087515
     4  C    0.240328
     5  C    0.263252
     6  C   -0.504198
     7  C    0.157863
     8  C   -0.028495
     9  C    0.208573
    10  C   -0.284736
    11  C    0.318284
    12  C    0.174389
    13  C   -0.533396
    14  C   -0.644457
    15  H    0.122740
    16  H    0.123499
    17  H    0.122481
    18  N   -0.102310
    19  N   -0.157622
    20  O   -0.527368
    21  O   -0.512141
    22  O   -0.516963
    23  O   -0.436553
    24  C   -0.178448
    25  H    0.162334
    26  H    0.161996
    27  H    0.168514
    28  C   -0.200485
    29  H    0.158948
    30  H    0.161070
    31  H    0.168635
    32  C    0.119730
    33  C   -0.472827
    34  S   -0.489695
    35  C   -0.231812
    36  H    0.140363
    37  C    0.326176
    38  O   -0.157914
    39  C    0.853584
    40  C   -0.254332
    41  C   -0.000615
    42  S   -0.226804
    43  H    0.172445
    44  H    0.160648
    45  H    0.161463
    46  C   -0.534333
    47  O   -0.170837
    48  C   -0.342873
    49  H    0.157185
    50  C   -0.248725
    51  H    0.183900
    52  H    0.156787
    53  H    0.170935
    54  H    0.155418
 Sum of Mulliken charges =  -2.00000

 Dipole moment (field-independent basis, Debye):
    X=             27.2284    Y=             -3.0716    Z=              1.0554  Tot=             27.4214
 Quadrupole moment (field-independent basis, Debye-Ang):
   XX=           -375.5470   YY=           -303.0931   ZZ=           -221.1188
   XY=              8.9758   XZ=             25.4024   YZ=             26.2567

 Normal termination of Gaussian 16 at Thu Oct 28 08:35:15 2021.
