 Gaussian 16, Revision C.01,
 Gaussian 16:  ES64L-G16RevC.01  3-Jul-2019

 ---------------------------------------------------------------
 # opt=modredundant b3lyp/6-311+g(d,p) scrf=(pcm, solvent=water)
 ---------------------------------------------------------------

 -----------
 NDI_-15.pdb
 -----------
 Symbolic Z-matrix:
 Charge = -2 Multiplicity = 1

 SCF Done:  E(RB3LYP) =  -2359.59472930     A.U. after   17 cycles
 SCF Done:  E(RB3LYP) =  -2359.59859997     A.U. after   17 cycles
 SCF Done:  E(RB3LYP) =  -2359.60603438     A.U. after   13 cycles
 SCF Done:  E(RB3LYP) =  -2359.61602876     A.U. after   15 cycles
 SCF Done:  E(RB3LYP) =  -2359.62119499     A.U. after   16 cycles
 SCF Done:  E(RB3LYP) =  -2359.62241646     A.U. after   17 cycles
 SCF Done:  E(RB3LYP) =  -2359.62274434     A.U. after   13 cycles
 SCF Done:  E(RB3LYP) =  -2359.62280456     A.U. after   12 cycles
 SCF Done:  E(RB3LYP) =  -2359.62288783     A.U. after   12 cycles
 SCF Done:  E(RB3LYP) =  -2359.62290752     A.U. after   11 cycles
 SCF Done:  E(RB3LYP) =  -2359.62298744     A.U. after   10 cycles
 SCF Done:  E(RB3LYP) =  -2359.62298838     A.U. after   10 cycles
 SCF Done:  E(RB3LYP) =  -2359.62298926     A.U. after   10 cycles
 SCF Done:  E(RB3LYP) =  -2359.62298968     A.U. after   10 cycles
 SCF Done:  E(RB3LYP) =  -2359.62299016     A.U. after    8 cycles
 SCF Done:  E(RB3LYP) =  -2359.62299064     A.U. after    9 cycles
 SCF Done:  E(RB3LYP) =  -2359.62299117     A.U. after    9 cycles
 SCF Done:  E(RB3LYP) =  -2359.62299153     A.U. after    9 cycles
 SCF Done:  E(RB3LYP) =  -2359.62299162     A.U. after    8 cycles
 SCF Done:  E(RB3LYP) =  -2359.62299165     A.U. after    8 cycles
 Optimization completed.
    -- Stationary point found.

                         Standard orientation:
 ---------------------------------------------------------------------
 Center     Atomic      Atomic             Coordinates (Angstroms)
 Number     Number       Type             X           Y           Z
 ---------------------------------------------------------------------
      1          6           0       -2.671570   -3.010930   -0.059741
      2          6           0       -2.329370   -1.621650    0.046247
      3          6           0       -3.333263   -0.627516   -0.081146
      4          6           0       -4.681429   -0.979800   -0.316533
      5          6           0       -5.057805   -2.364776   -0.432124
      6          6           0       -0.969537   -1.236190    0.163047
      7          6           0       -2.955356    0.760607    0.059646
      8          6           0       -1.596485    1.114226    0.321442
      9          6           0       -0.559406    0.076186    0.270856
     10          6           0       -1.340134    2.448049    0.789224
     11          6           0       -3.678922    3.124749    0.199979
     12          6           0       -3.982625    1.738666   -0.015253
     13          6           0       -5.337202    1.351998   -0.273283
     14          6           0       -5.679879    0.040757   -0.422587
     15          1           0       -6.704753   -0.255495   -0.607623
     16          1           0       -6.083847    2.134373   -0.331979
     17          1           0       -0.237315   -2.028270    0.066357
     18          7           0       -2.365789    3.404490    0.592411
     19          7           0       -4.024808   -3.311084   -0.292842
     20          8           0       -1.854523   -3.956837    0.035828
     21          8           0       -6.230567   -2.752489   -0.639968
     22          8           0       -4.513176    4.056738    0.090635
     23          8           0       -0.300814    2.836683    1.369691
     24          6           0       -2.037012    4.787040    0.945841
     25          1           0       -2.047925    4.928764    2.030376
     26          1           0       -1.039425    5.026367    0.582641
     27          1           0       -2.780102    5.436677    0.493868
     28          6           0       -4.361686   -4.732725   -0.399759
     29          1           0       -3.799439   -5.192913   -1.213850
     30          1           0       -4.105871   -5.252039    0.525467
     31          1           0       -5.427041   -4.811652   -0.589562
     32          6           0        0.862430    0.357000    0.052892
     33          6           0        1.482516    1.497745   -0.407013
     34         16           0        2.076410   -0.871279    0.420723
     35          6           0        2.891198    1.378062   -0.519773
     36          1           0        0.938820    2.391099   -0.662291
     37          6           0        3.410111    0.156628   -0.116569
     38          8           0        3.737853    2.346123   -0.979280
     39          6           0        4.783385   -0.279380   -0.114356
     40          6           0        3.168850    3.579209   -1.427470
     41          6           0        5.306571   -1.500544    0.294920
     42         16           0        6.104424    0.749389   -0.674196
     43          1           0        4.006516    4.192273   -1.754902
     44          1           0        2.486273    3.414765   -2.265956
     45          1           0        2.640336    4.086591   -0.615812
     46          6           0        6.721541   -1.609315    0.162606
     47          8           0        4.470986   -2.468312    0.774551
     48          6           0        7.285558   -0.473832   -0.345857
     49          1           0        7.292999   -2.485701    0.432382
     50          6           0        5.052125   -3.709380    1.180931
     51          1           0        8.327968   -0.279743   -0.546497
     52          1           0        5.759723   -3.562650    2.002182
     53          1           0        4.224871   -4.329085    1.521581
     54          1           0        5.555343   -4.201506    0.343541
 ---------------------------------------------------------------------

 The electronic state is 1-A.
 Alpha  occ. eigenvalues --  -88.87554 -88.86431 -19.15848 -19.15766 -19.07102
 Alpha  occ. eigenvalues --  -19.06933 -19.06650 -19.06248 -14.34818 -14.34354
 Alpha  occ. eigenvalues --  -10.25538 -10.25233 -10.25003 -10.24874 -10.23435
 Alpha  occ. eigenvalues --  -10.23144 -10.22245 -10.22122 -10.20941 -10.20116
 Alpha  occ. eigenvalues --  -10.20076 -10.19714 -10.18656 -10.18472 -10.18213
 Alpha  occ. eigenvalues --  -10.17979 -10.17958 -10.17682 -10.16328 -10.16012
 Alpha  occ. eigenvalues --  -10.15872 -10.15750 -10.15510 -10.15493 -10.15439
 Alpha  occ. eigenvalues --  -10.15330  -7.96118  -7.95011  -5.92427  -5.92044
 Alpha  occ. eigenvalues --   -5.91685  -5.91338  -5.90959  -5.90536  -1.07137
 Alpha  occ. eigenvalues --   -1.06986  -1.02752  -1.02340  -1.00336  -0.99862
 Alpha  occ. eigenvalues --   -0.91399  -0.90920  -0.88781  -0.87243  -0.86138
 Alpha  occ. eigenvalues --   -0.81378  -0.79172  -0.77343  -0.75465  -0.74294
 Alpha  occ. eigenvalues --   -0.73386  -0.72974  -0.71609  -0.71218  -0.69110
 Alpha  occ. eigenvalues --   -0.68855  -0.67985  -0.66193  -0.62775  -0.61835
 Alpha  occ. eigenvalues --   -0.61064  -0.60033  -0.58767  -0.57260  -0.54987
 Alpha  occ. eigenvalues --   -0.54829  -0.53643  -0.53255  -0.52929  -0.50827
 Alpha  occ. eigenvalues --   -0.49629  -0.48022  -0.47342  -0.47005  -0.46878
 Alpha  occ. eigenvalues --   -0.46701  -0.46215  -0.45798  -0.45508  -0.44974
 Alpha  occ. eigenvalues --   -0.44490  -0.44312  -0.44121  -0.42704  -0.41921
 Alpha  occ. eigenvalues --   -0.41762  -0.41059  -0.40792  -0.40593  -0.40444
 Alpha  occ. eigenvalues --   -0.40228  -0.40059  -0.39090  -0.38458  -0.38311
 Alpha  occ. eigenvalues --   -0.38214  -0.37745  -0.37515  -0.37116  -0.36920
 Alpha  occ. eigenvalues --   -0.36279  -0.36048  -0.35200  -0.34847  -0.34471
 Alpha  occ. eigenvalues --   -0.33473  -0.32949  -0.32853  -0.32636  -0.31447
 Alpha  occ. eigenvalues --   -0.30344  -0.27997  -0.26742  -0.26544  -0.25885
 Alpha  occ. eigenvalues --   -0.25740  -0.25030  -0.24689  -0.24404  -0.23968
 Alpha  occ. eigenvalues --   -0.23595  -0.22899  -0.20957  -0.17950  -0.13262
 Alpha virt. eigenvalues --   -0.05288  -0.03401  -0.01425  -0.00494  -0.00057
 Alpha virt. eigenvalues --    0.00630   0.00808   0.01033   0.01673   0.01907
 Alpha virt. eigenvalues --    0.02138   0.02542   0.02931   0.03161   0.03229

 Mulliken charges:
               1
     1  C    0.225646
     2  C   -0.107334
     3  C    0.176838
     4  C    0.201178
     5  C    0.185172
     6  C    0.016288
     7  C    0.263155
     8  C    0.421714
     9  C    0.030581
    10  C   -0.851997
    11  C    0.241605
    12  C    0.109174
    13  C   -0.523884
    14  C   -0.616168
    15  H    0.123765
    16  H    0.124609
    17  H    0.129974
    18  N   -0.028613
    19  N   -0.151007
    20  O   -0.523867
    21  O   -0.498922
    22  O   -0.518278
    23  O   -0.455842
    24  C   -0.175480
    25  H    0.162335
    26  H    0.162841
    27  H    0.166146
    28  C   -0.198399
    29  H    0.161403
    30  H    0.160331
    31  H    0.167652
    32  C   -0.362411
    33  C   -0.342699
    34  S   -0.623844
    35  C   -0.234889
    36  H    0.155752
    37  C    0.649821
    38  O   -0.168689
    39  C    0.855708
    40  C   -0.236204
    41  C    0.036488
    42  S   -0.223201
    43  H    0.172318
    44  H    0.158359
    45  H    0.158974
    46  C   -0.623792
    47  O   -0.167243
    48  C   -0.358343
    49  H    0.156749
    50  C   -0.249287
    51  H    0.183834
    52  H    0.155076
    53  H    0.171114
    54  H    0.155794
 Sum of Mulliken charges =  -2.00000

 Dipole moment (field-independent basis, Debye):
    X=             26.4098    Y=             -0.8076    Z=             -1.8819  Tot=             26.4891
 Quadrupole moment (field-independent basis, Debye-Ang):
   XX=           -374.0978   YY=           -287.7023   ZZ=           -237.3485
   XY=            -10.3152   XZ=             -7.0868   YZ=            -17.2084

 Normal termination of Gaussian 16 at Thu Oct 28 13:17:11 2021.
