 Gaussian 16, Revision C.01,
 Gaussian 16:  ES64L-G16RevC.01  3-Jul-2019

 ---------------------------------------------------------------
 # opt=modredundant b3lyp/6-311+g(d,p) scrf=(pcm, solvent=water)
 ---------------------------------------------------------------

 -----------
 NDI_110.pdb
 -----------
 Symbolic Z-matrix:
 Charge = -2 Multiplicity = 1

 SCF Done:  E(RB3LYP) =  -2359.60361445     A.U. after   18 cycles
 SCF Done:  E(RB3LYP) =  -2359.62135256     A.U. after   14 cycles
 SCF Done:  E(RB3LYP) =  -2359.62442913     A.U. after   15 cycles
 SCF Done:  E(RB3LYP) =  -2359.62461035     A.U. after   12 cycles
 SCF Done:  E(RB3LYP) =  -2359.62465893     A.U. after   12 cycles
 SCF Done:  E(RB3LYP) =  -2359.62470829     A.U. after   11 cycles
 SCF Done:  E(RB3LYP) =  -2359.62472339     A.U. after   11 cycles
 SCF Done:  E(RB3LYP) =  -2359.62473323     A.U. after   11 cycles
 SCF Done:  E(RB3LYP) =  -2359.62474192     A.U. after   10 cycles
 SCF Done:  E(RB3LYP) =  -2359.62475071     A.U. after   11 cycles
 SCF Done:  E(RB3LYP) =  -2359.62481570     A.U. after    8 cycles
 SCF Done:  E(RB3LYP) =  -2359.62481573     A.U. after    9 cycles
 SCF Done:  E(RB3LYP) =  -2359.62481573     A.U. after    9 cycles
 SCF Done:  E(RB3LYP) =  -2359.62481576     A.U. after    9 cycles
 SCF Done:  E(RB3LYP) =  -2359.62476293     A.U. after    8 cycles
 SCF Done:  E(RB3LYP) =  -2359.62481214     A.U. after   11 cycles
 SCF Done:  E(RB3LYP) =  -2359.62481555     A.U. after   10 cycles
 SCF Done:  E(RB3LYP) =  -2359.62481575     A.U. after    9 cycles
 SCF Done:  E(RB3LYP) =  -2359.62481584     A.U. after    8 cycles
 SCF Done:  E(RB3LYP) =  -2359.62481586     A.U. after    8 cycles
 Optimization completed.
    -- Stationary point found.

                         Standard orientation:
 ---------------------------------------------------------------------
 Center     Atomic      Atomic             Coordinates (Angstroms)
 Number     Number       Type             X           Y           Z
 ---------------------------------------------------------------------
      1          6           0        3.358928   -2.770154    0.245315
      2          6           0        2.707137   -1.510700    0.041149
      3          6           0        3.446498   -0.304676    0.115912
      4          6           0        4.836750   -0.317482    0.393223
      5          6           0        5.519753   -1.561569    0.604477
      6          6           0        1.303143   -1.465469   -0.207551
      7          6           0        2.764121    0.951654   -0.106807
      8          6           0        1.366277    0.966744   -0.395194
      9          6           0        0.629588   -0.288555   -0.407917
     10          6           0        0.742560    2.220929   -0.719361
     11          6           0        2.903429    3.417528   -0.287334
     12          6           0        3.525322    2.149334   -0.048326
     13          6           0        4.930114    2.102250    0.239018
     14          6           0        5.564560    0.916273    0.453896
     15          1           0        6.625611    0.878579    0.667295
     16          1           0        5.470468    3.040092    0.274493
     17          1           0        0.758293   -2.401281   -0.202683
     18          7           0        1.538295    3.381647   -0.608998
     19          7           0        4.737544   -2.730220    0.513662
     20          8           0        2.786821   -3.887463    0.201192
     21          8           0        6.746530   -1.655529    0.856021
     22          8           0        3.505091    4.519371   -0.234757
     23          8           0       -0.442270    2.369880   -1.095917
     24          6           0        0.864679    4.648506   -0.903111
     25          1           0        0.565966    4.690303   -1.953078
     26          1           0       -0.033626    4.743894   -0.292759
     27          1           0        1.559121    5.453551   -0.685451
     28          6           0        5.394685   -4.023504    0.714078
     29          1           0        4.966120   -4.537600    1.576533
     30          1           0        5.253007   -4.657008   -0.162905
     31          1           0        6.451470   -3.839894    0.877928
     32          6           0       -0.837751   -0.387987   -0.588292
     33          6           0       -1.526476   -0.875741   -1.666055
     34         16           0       -1.933038    0.002774    0.717371
     35          6           0       -2.937472   -0.910447   -1.466175
     36          1           0       -1.034620   -1.178135   -2.579368
     37          6           0       -3.354094   -0.463341   -0.222607
     38          8           0       -3.862820   -1.336594   -2.374926
     39          6           0       -4.700671   -0.375401    0.292595
     40          6           0       -3.395610   -1.765405   -3.656888
     41          6           0       -5.121031    0.056857    1.543243
     42         16           0       -6.112128   -0.833660   -0.660795
     43          1           0       -4.283585   -2.050290   -4.218034
     44          1           0       -2.878634   -0.954722   -4.177975
     45          1           0       -2.730275   -2.628383   -3.564197
     46          6           0       -6.534134    0.024507    1.732655
     47          8           0       -4.199296    0.462071    2.464497
     48          6           0       -7.194947   -0.433128    0.628647
     49          1           0       -7.034629    0.324731    2.641850
     50          6           0       -4.678464    0.919311    3.731671
     51          1           0       -8.258058   -0.561539    0.494639
     52          1           0       -5.219000    0.126865    4.257293
     53          1           0       -3.794290    1.195559    4.302870
     54          1           0       -5.325394    1.793584    3.615264
 ---------------------------------------------------------------------

 The electronic state is 1-A.
 Alpha  occ. eigenvalues --  -88.87664 -88.86581 -19.15936 -19.15899 -19.06651
 Alpha  occ. eigenvalues --  -19.06616 -19.06512 -19.06217 -14.34597 -14.34366
 Alpha  occ. eigenvalues --  -10.25084 -10.24903 -10.24887 -10.24875 -10.23574
 Alpha  occ. eigenvalues --  -10.23312 -10.22286 -10.22224 -10.20983 -10.20278
 Alpha  occ. eigenvalues --  -10.20256 -10.19847 -10.18523 -10.18385 -10.18129
 Alpha  occ. eigenvalues --  -10.18033 -10.17932 -10.17417 -10.16861 -10.15996
 Alpha  occ. eigenvalues --  -10.15620 -10.15382 -10.15309 -10.15297 -10.15247
 Alpha  occ. eigenvalues --  -10.15181  -7.96229  -7.95160  -5.92536  -5.92153
 Alpha  occ. eigenvalues --   -5.91799  -5.91480  -5.91096  -5.90701  -1.07241
 Alpha  occ. eigenvalues --   -1.07114  -1.02338  -1.02255  -0.99856  -0.99766
 Alpha  occ. eigenvalues --   -0.91084  -0.90848  -0.88934  -0.87355  -0.86080
 Alpha  occ. eigenvalues --   -0.81232  -0.79021  -0.77428  -0.75464  -0.74204
 Alpha  occ. eigenvalues --   -0.73656  -0.72678  -0.71638  -0.71225  -0.69174
 Alpha  occ. eigenvalues --   -0.68724  -0.67938  -0.66311  -0.62514  -0.61751
 Alpha  occ. eigenvalues --   -0.60913  -0.59754  -0.59012  -0.57281  -0.55044
 Alpha  occ. eigenvalues --   -0.54917  -0.53493  -0.53409  -0.52822  -0.50546
 Alpha  occ. eigenvalues --   -0.49399  -0.48307  -0.47414  -0.47103  -0.47087
 Alpha  occ. eigenvalues --   -0.46614  -0.46044  -0.45765  -0.45436  -0.44789
 Alpha  occ. eigenvalues --   -0.44448  -0.44343  -0.44177  -0.42626  -0.42202
 Alpha  occ. eigenvalues --   -0.41585  -0.41092  -0.40908  -0.40529  -0.40332
 Alpha  occ. eigenvalues --   -0.40111  -0.39982  -0.39199  -0.38228  -0.38197
 Alpha  occ. eigenvalues --   -0.37874  -0.37701  -0.37371  -0.36917  -0.36754
 Alpha  occ. eigenvalues --   -0.36442  -0.36218  -0.35131  -0.34728  -0.34522
 Alpha  occ. eigenvalues --   -0.33322  -0.33046  -0.32705  -0.32382  -0.31610
 Alpha  occ. eigenvalues --   -0.30030  -0.27763  -0.26689  -0.26265  -0.25740
 Alpha  occ. eigenvalues --   -0.25539  -0.25030  -0.24404  -0.24167  -0.23990
 Alpha  occ. eigenvalues --   -0.23509  -0.23288  -0.20836  -0.18248  -0.13177
 Alpha virt. eigenvalues --   -0.04275  -0.03447  -0.01135  -0.00388  -0.00055
 Alpha virt. eigenvalues --    0.00423   0.00564   0.00982   0.01170   0.01418
 Alpha virt. eigenvalues --    0.01749   0.02563   0.02710   0.03072   0.03110

 Mulliken charges:
               1
     1  C    0.402448
     2  C   -0.076979
     3  C    0.103254
     4  C    0.195364
     5  C    0.243241
     6  C   -0.707441
     7  C    0.184213
     8  C   -0.135884
     9  C    0.374708
    10  C   -0.217077
    11  C    0.288028
    12  C    0.190715
    13  C   -0.595812
    14  C   -0.637827
    15  H    0.122131
    16  H    0.123158
    17  H    0.118289
    18  N   -0.148234
    19  N   -0.159482
    20  O   -0.526686
    21  O   -0.515188
    22  O   -0.516491
    23  O   -0.405048
    24  C   -0.202506
    25  H    0.160981
    26  H    0.161564
    27  H    0.168669
    28  C   -0.201304
    29  H    0.160212
    30  H    0.158869
    31  H    0.168532
    32  C    0.261253
    33  C   -0.725425
    34  S   -0.331871
    35  C   -0.206714
    36  H    0.135084
    37  C    0.361306
    38  O   -0.160691
    39  C    0.849127
    40  C   -0.256095
    41  C    0.011252
    42  S   -0.230626
    43  H    0.172455
    44  H    0.161736
    45  H    0.160783
    46  C   -0.526396
    47  O   -0.175536
    48  C   -0.355376
    49  H    0.157311
    50  C   -0.247663
    51  H    0.184101
    52  H    0.155661
    53  H    0.171022
    54  H    0.156889
 Sum of Mulliken charges =  -2.00000

 Dipole moment (field-independent basis, Debye):
    X=            -27.8041    Y=             -2.8546    Z=              0.3051  Tot=             27.9519
 Quadrupole moment (field-independent basis, Debye-Ang):
   XX=           -379.1919   YY=           -311.8111   ZZ=           -210.9844
   XY=             -5.2305   XZ=            -23.9769   YZ=             17.7617

 Normal termination of Gaussian 16 at Thu Oct 28 15:10:34 2021.
