 Gaussian 16, Revision C.01,
 Gaussian 16:  ES64L-G16RevC.01  3-Jul-2019

 ---------------------------------------------------------------
 # opt=modredundant b3lyp/6-311+g(d,p) scrf=(pcm, solvent=water)
 ---------------------------------------------------------------

 -----------
 NDI_-25.pdb
 -----------
 Symbolic Z-matrix:
 Charge = -2 Multiplicity = 1

 SCF Done:  E(RB3LYP) =  -2359.60151700     A.U. after   17 cycles
 SCF Done:  E(RB3LYP) =  -2359.61228732     A.U. after   17 cycles
 SCF Done:  E(RB3LYP) =  -2359.62023479     A.U. after   16 cycles
 SCF Done:  E(RB3LYP) =  -2359.62277614     A.U. after   16 cycles
 SCF Done:  E(RB3LYP) =  -2359.62344194     A.U. after   15 cycles
 SCF Done:  E(RB3LYP) =  -2359.62384705     A.U. after   13 cycles
 SCF Done:  E(RB3LYP) =  -2359.62413106     A.U. after   13 cycles
 SCF Done:  E(RB3LYP) =  -2359.62418844     A.U. after   13 cycles
 SCF Done:  E(RB3LYP) =  -2359.62420354     A.U. after   12 cycles
 SCF Done:  E(RB3LYP) =  -2359.62421159     A.U. after   12 cycles
 SCF Done:  E(RB3LYP) =  -2359.62428756     A.U. after   10 cycles
 SCF Done:  E(RB3LYP) =  -2359.62428803     A.U. after    9 cycles
 SCF Done:  E(RB3LYP) =  -2359.62428839     A.U. after    9 cycles
 SCF Done:  E(RB3LYP) =  -2359.62428875     A.U. after   10 cycles
 SCF Done:  E(RB3LYP) =  -2359.62428890     A.U. after    8 cycles
 SCF Done:  E(RB3LYP) =  -2359.62428899     A.U. after    9 cycles
 SCF Done:  E(RB3LYP) =  -2359.62428905     A.U. after    9 cycles
 SCF Done:  E(RB3LYP) =  -2359.62428908     A.U. after    9 cycles
 SCF Done:  E(RB3LYP) =  -2359.62428906     A.U. after    8 cycles
 SCF Done:  E(RB3LYP) =  -2359.62428904     A.U. after    8 cycles
 Optimization completed.
    -- Stationary point found.

                         Standard orientation:
 ---------------------------------------------------------------------
 Center     Atomic      Atomic             Coordinates (Angstroms)
 Number     Number       Type             X           Y           Z
 ---------------------------------------------------------------------
      1          6           0        2.717471   -2.995926    0.192927
      2          6           0        2.354232   -1.616969    0.038485
      3          6           0        3.349508   -0.607304    0.082744
      4          6           0        4.710879   -0.934553    0.279886
      5          6           0        5.108424   -2.308033    0.442577
      6          6           0        0.984903   -1.252196   -0.049379
      7          6           0        2.950503    0.770611   -0.098379
      8          6           0        1.577642    1.099330   -0.314709
      9          6           0        0.561486    0.051212   -0.193857
     10          6           0        1.275135    2.420336   -0.793379
     11          6           0        3.637040    3.135769   -0.356595
     12          6           0        3.966802    1.762360   -0.103248
     13          6           0        5.335620    1.401168    0.115845
     14          6           0        5.699464    0.101060    0.305153
     15          1           0        6.734372   -0.175902    0.462419
     16          1           0        6.074056    2.193427    0.114614
     17          1           0        0.260697   -2.043516    0.098384
     18          7           0        2.301468    3.389908   -0.689015
     19          7           0        4.083447   -3.271317    0.378739
     20          8           0        1.907900   -3.953411    0.176671
     21          8           0        6.292501   -2.673755    0.628309
     22          8           0        4.466301    4.078140   -0.325868
     23          8           0        0.194513    2.785814   -1.308813
     24          6           0        1.937500    4.756495   -1.069441
     25          1           0        1.836689    4.847050   -2.154554
     26          1           0        0.982412    5.018979   -0.617666
     27          1           0        2.723071    5.421624   -0.724965
     28          6           0        4.444084   -4.683194    0.529317
     29          1           0        3.994632   -5.097346    1.434358
     30          1           0        4.077695   -5.255319   -0.323700
     31          1           0        5.525290   -4.748893    0.591454
     32          6           0       -0.861988    0.325682    0.024048
     33          6           0       -1.471519    1.418486    0.596249
     34         16           0       -2.076675   -0.847569   -0.473879
     35          6           0       -2.881997    1.300689    0.686526
     36          1           0       -0.917271    2.272470    0.949379
     37          6           0       -3.406863    0.129510    0.158217
     38          8           0       -3.725171    2.222905    1.237382
     39          6           0       -4.783987   -0.291704    0.101682
     40          6           0       -3.149980    3.397997    1.814696
     41          6           0       -5.313450   -1.456282   -0.441625
     42         16           0       -6.100575    0.680365    0.763378
     43          1           0       -3.985285    3.982347    2.196156
     44          1           0       -2.476908    3.141787    2.637767
     45          1           0       -2.609331    3.980844    1.063977
     46          6           0       -6.730152   -1.567217   -0.330483
     47          8           0       -4.481276   -2.372407   -1.018789
     48          6           0       -7.288850   -0.489550    0.295884
     49          1           0       -7.306567   -2.403864   -0.698093
     50          6           0       -5.069093   -3.551886   -1.572320
     51          1           0       -8.331162   -0.309553    0.509714
     52          1           0       -5.766391   -3.303455   -2.377784
     53          1           0       -4.243794   -4.136170   -1.974748
     54          1           0       -5.585643   -4.133024   -0.802829
 ---------------------------------------------------------------------

 The electronic state is 1-A.
 Alpha  occ. eigenvalues --  -88.87555 -88.86525 -19.15851 -19.15780 -19.07025
 Alpha  occ. eigenvalues --  -19.06872 -19.06636 -19.06220 -14.34780 -14.34349
 Alpha  occ. eigenvalues --  -10.25459 -10.25173 -10.24998 -10.24868 -10.23429
 Alpha  occ. eigenvalues --  -10.23181 -10.22248 -10.22138 -10.20936 -10.20080
 Alpha  occ. eigenvalues --  -10.20065 -10.19713 -10.18636 -10.18450 -10.18197
 Alpha  occ. eigenvalues --  -10.17971 -10.17959 -10.17637 -10.16405 -10.15943
 Alpha  occ. eigenvalues --  -10.15872 -10.15686 -10.15466 -10.15463 -10.15402
 Alpha  occ. eigenvalues --  -10.15306  -7.96119  -7.95101  -5.92428  -5.92045
 Alpha  occ. eigenvalues --   -5.91687  -5.91425  -5.91046  -5.90632  -1.07139
 Alpha  occ. eigenvalues --   -1.07004  -1.02673  -1.02320  -1.00250  -0.99844
 Alpha  occ. eigenvalues --   -0.91339  -0.90896  -0.88801  -0.87272  -0.86129
 Alpha  occ. eigenvalues --   -0.81358  -0.79144  -0.77344  -0.75464  -0.74280
 Alpha  occ. eigenvalues --   -0.73420  -0.72940  -0.71598  -0.71222  -0.69121
 Alpha  occ. eigenvalues --   -0.68833  -0.67967  -0.66199  -0.62732  -0.61814
 Alpha  occ. eigenvalues --   -0.61035  -0.59999  -0.58782  -0.57249  -0.54991
 Alpha  occ. eigenvalues --   -0.54838  -0.53602  -0.53271  -0.52911  -0.50784
 Alpha  occ. eigenvalues --   -0.49588  -0.48063  -0.47347  -0.47017  -0.46895
 Alpha  occ. eigenvalues --   -0.46691  -0.46173  -0.45782  -0.45491  -0.44939
 Alpha  occ. eigenvalues --   -0.44472  -0.44303  -0.44146  -0.42658  -0.41919
 Alpha  occ. eigenvalues --   -0.41749  -0.41067  -0.40819  -0.40554  -0.40438
 Alpha  occ. eigenvalues --   -0.40232  -0.40032  -0.39075  -0.38424  -0.38286
 Alpha  occ. eigenvalues --   -0.38208  -0.37708  -0.37473  -0.37041  -0.36919
 Alpha  occ. eigenvalues --   -0.36334  -0.36086  -0.35121  -0.34907  -0.34483
 Alpha  occ. eigenvalues --   -0.33403  -0.32946  -0.32788  -0.32628  -0.31569
 Alpha  occ. eigenvalues --   -0.30338  -0.27947  -0.26723  -0.26494  -0.25853
 Alpha  occ. eigenvalues --   -0.25713  -0.25024  -0.24694  -0.24344  -0.23922
 Alpha  occ. eigenvalues --   -0.23648  -0.22850  -0.20939  -0.17979  -0.13247
 Alpha virt. eigenvalues --   -0.05112  -0.03377  -0.01413  -0.00479  -0.00050
 Alpha virt. eigenvalues --    0.00623   0.00837   0.01016   0.01653   0.01754
 Alpha virt. eigenvalues --    0.02077   0.02553   0.02839   0.03144   0.03217

 Mulliken charges:
               1
     1  C    0.253462
     2  C   -0.156879
     3  C    0.126166
     4  C    0.192237
     5  C    0.192676
     6  C   -0.130344
     7  C    0.247202
     8  C    0.412016
     9  C    0.193307
    10  C   -0.723645
    11  C    0.253183
    12  C    0.078030
    13  C   -0.525549
    14  C   -0.610162
    15  H    0.123588
    16  H    0.124231
    17  H    0.132652
    18  N   -0.052033
    19  N   -0.153058
    20  O   -0.525240
    21  O   -0.501567
    22  O   -0.516952
    23  O   -0.441017
    24  C   -0.178097
    25  H    0.162048
    26  H    0.162059
    27  H    0.166610
    28  C   -0.201076
    29  H    0.162301
    30  H    0.159246
    31  H    0.167706
    32  C   -0.136871
    33  C   -0.480677
    34  S   -0.623390
    35  C   -0.322115
    36  H    0.152167
    37  C    0.649430
    38  O   -0.168638
    39  C    0.836881
    40  C   -0.236636
    41  C    0.031406
    42  S   -0.229124
    43  H    0.172245
    44  H    0.159196
    45  H    0.158838
    46  C   -0.612972
    47  O   -0.167366
    48  C   -0.348416
    49  H    0.156767
    50  C   -0.249648
    51  H    0.183601
    52  H    0.155245
    53  H    0.171046
    54  H    0.155930
 Sum of Mulliken charges =  -2.00000

 Dipole moment (field-independent basis, Debye):
    X=            -26.5701    Y=             -0.7866    Z=              1.8072  Tot=             26.6431
 Quadrupole moment (field-independent basis, Debye-Ang):
   XX=           -375.9641   YY=           -289.8120   ZZ=           -234.4306
   XY=             10.3419   XZ=             -3.4769   YZ=             22.4576

 Normal termination of Gaussian 16 at Thu Oct 28 11:40:33 2021.
