 Gaussian 16, Revision C.01,
 Gaussian 16:  ES64L-G16RevC.01  3-Jul-2019

 ---------------------------------------------------------------
 # opt=modredundant b3lyp/6-311+g(d,p) scrf=(pcm, solvent=water)
 ---------------------------------------------------------------

 ----------
 NDI_15.pdb
 ----------
 Symbolic Z-matrix:
 Charge = -2 Multiplicity = 1

 SCF Done:  E(RB3LYP) =  -2359.58469718     A.U. after   17 cycles
 SCF Done:  E(RB3LYP) =  -2359.59339549     A.U. after   17 cycles
 SCF Done:  E(RB3LYP) =  -2359.61250645     A.U. after   16 cycles
 SCF Done:  E(RB3LYP) =  -2359.61608182     A.U. after   14 cycles
 SCF Done:  E(RB3LYP) =  -2359.61704808     A.U. after   13 cycles
 SCF Done:  E(RB3LYP) =  -2359.61743935     A.U. after   13 cycles
 SCF Done:  E(RB3LYP) =  -2359.55568623     A.U. after   17 cycles
 SCF Done:  E(RB3LYP) =  -2359.62084919     A.U. after   16 cycles
 SCF Done:  E(RB3LYP) =  -2359.62174709     A.U. after   16 cycles
 SCF Done:  E(RB3LYP) =  -2359.62217706     A.U. after   15 cycles
 SCF Done:  E(RB3LYP) =  -2359.62299242     A.U. after    9 cycles
 SCF Done:  E(RB3LYP) =  -2359.62299364     A.U. after    9 cycles
 SCF Done:  E(RB3LYP) =  -2359.62299441     A.U. after   10 cycles
 SCF Done:  E(RB3LYP) =  -2359.62299472     A.U. after   10 cycles
 SCF Done:  E(RB3LYP) =  -2359.62299474     A.U. after    9 cycles
 SCF Done:  E(RB3LYP) =  -2359.62299477     A.U. after    8 cycles
 SCF Done:  E(RB3LYP) =  -2359.62299476     A.U. after    9 cycles
 SCF Done:  E(RB3LYP) =  -2359.62299477     A.U. after    8 cycles
 SCF Done:  E(RB3LYP) =  -2359.62299477     A.U. after    8 cycles
 SCF Done:  E(RB3LYP) =  -2359.62299479     A.U. after    8 cycles
 Optimization completed.
    -- Stationary point found.

                         Standard orientation:
 ---------------------------------------------------------------------
 Center     Atomic      Atomic             Coordinates (Angstroms)
 Number     Number       Type             X           Y           Z
 ---------------------------------------------------------------------
      1          6           0       -2.671742   -3.010901    0.059725
      2          6           0       -2.329459   -1.621623   -0.046162
      3          6           0       -3.333309   -0.627457    0.081144
      4          6           0       -4.681517   -0.979686    0.316464
      5          6           0       -5.057958   -2.364619    0.432012
      6          6           0       -0.969606   -1.236230   -0.162948
      7          6           0       -2.955327    0.760660   -0.059657
      8          6           0       -1.596430    1.114198   -0.321400
      9          6           0       -0.559418    0.076117   -0.270785
     10          6           0       -1.339985    2.448032   -0.789130
     11          6           0       -3.678780    3.124820   -0.199982
     12          6           0       -3.982562    1.738772    0.015216
     13          6           0       -5.337173    1.352153    0.273194
     14          6           0       -5.679920    0.040934    0.422472
     15          1           0       -6.704821   -0.255252    0.607458
     16          1           0       -6.083801    2.134544    0.331869
     17          1           0       -0.237420   -2.028330   -0.066177
     18          7           0       -2.365571    3.404501   -0.592336
     19          7           0       -4.024966   -3.310988    0.292786
     20          8           0       -1.854727   -3.956827   -0.035954
     21          8           0       -6.230746   -2.752324    0.639717
     22          8           0       -4.512954    4.056896   -0.090718
     23          8           0       -0.300596    2.836567   -1.369524
     24          6           0       -2.036779    4.787037   -0.945812
     25          1           0       -1.039098    5.026289   -0.582829
     26          1           0       -2.047923    4.928788   -2.030344
     27          1           0       -2.779721    5.436721   -0.493665
     28          6           0       -4.361932   -4.732614    0.399613
     29          1           0       -4.106986   -5.251754   -0.525960
     30          1           0       -3.799030   -5.193045    1.213102
     31          1           0       -5.427139   -4.811463    0.590277
     32          6           0        0.862439    0.356910   -0.052848
     33          6           0        1.482476    1.497553    0.407375
     34         16           0        2.076427   -0.871219   -0.421007
     35          6           0        2.891164    1.377878    0.520109
     36          1           0        0.938774    2.390797    0.663033
     37          6           0        3.410108    0.156561    0.116583
     38          8           0        3.737793    2.345844    0.979841
     39          6           0        4.783401   -0.279390    0.114165
     40          6           0        3.168832    3.579022    1.427828
     41          6           0        5.306606   -1.500549   -0.295094
     42         16           0        6.104481    0.749592    0.673509
     43          1           0        4.006509    4.192049    1.755301
     44          1           0        2.640451    4.086346    0.616048
     45          1           0        2.486152    3.414732    2.266260
     46          6           0        6.721625   -1.609156   -0.163127
     47          8           0        4.471043   -2.468375   -0.774643
     48          6           0        7.285661   -0.473543    0.345019
     49          1           0        7.293093   -2.485533   -0.432910
     50          6           0        5.051968   -3.710213   -1.178972
     51          1           0        8.328086   -0.279366    0.545487
     52          1           0        5.554678   -4.201264   -0.340649
     53          1           0        4.224668   -4.330149   -1.519089
     54          1           0        5.759958   -3.564907   -2.000138
 ---------------------------------------------------------------------

 The electronic state is 1-A.
 Alpha  occ. eigenvalues --  -88.87554 -88.86431 -19.15848 -19.15766 -19.07101
 Alpha  occ. eigenvalues --  -19.06933 -19.06650 -19.06248 -14.34818 -14.34354
 Alpha  occ. eigenvalues --  -10.25538 -10.25233 -10.25003 -10.24874 -10.23435
 Alpha  occ. eigenvalues --  -10.23144 -10.22245 -10.22123 -10.20941 -10.20116
 Alpha  occ. eigenvalues --  -10.20076 -10.19714 -10.18656 -10.18472 -10.18213
 Alpha  occ. eigenvalues --  -10.17979 -10.17958 -10.17682 -10.16328 -10.16012
 Alpha  occ. eigenvalues --  -10.15872 -10.15750 -10.15510 -10.15492 -10.15439
 Alpha  occ. eigenvalues --  -10.15329  -7.96118  -7.95012  -5.92426  -5.92044
 Alpha  occ. eigenvalues --   -5.91685  -5.91339  -5.90960  -5.90536  -1.07137
 Alpha  occ. eigenvalues --   -1.06986  -1.02752  -1.02340  -1.00336  -0.99862
 Alpha  occ. eigenvalues --   -0.91399  -0.90920  -0.88781  -0.87244  -0.86138
 Alpha  occ. eigenvalues --   -0.81378  -0.79172  -0.77343  -0.75465  -0.74294
 Alpha  occ. eigenvalues --   -0.73386  -0.72974  -0.71609  -0.71218  -0.69110
 Alpha  occ. eigenvalues --   -0.68855  -0.67985  -0.66194  -0.62775  -0.61835
 Alpha  occ. eigenvalues --   -0.61064  -0.60033  -0.58767  -0.57260  -0.54987
 Alpha  occ. eigenvalues --   -0.54829  -0.53643  -0.53255  -0.52929  -0.50828
 Alpha  occ. eigenvalues --   -0.49630  -0.48022  -0.47342  -0.47006  -0.46878
 Alpha  occ. eigenvalues --   -0.46701  -0.46215  -0.45798  -0.45508  -0.44974
 Alpha  occ. eigenvalues --   -0.44490  -0.44312  -0.44121  -0.42704  -0.41921
 Alpha  occ. eigenvalues --   -0.41761  -0.41059  -0.40792  -0.40593  -0.40444
 Alpha  occ. eigenvalues --   -0.40228  -0.40059  -0.39090  -0.38458  -0.38311
 Alpha  occ. eigenvalues --   -0.38214  -0.37745  -0.37514  -0.37116  -0.36920
 Alpha  occ. eigenvalues --   -0.36279  -0.36048  -0.35200  -0.34847  -0.34471
 Alpha  occ. eigenvalues --   -0.33473  -0.32948  -0.32854  -0.32635  -0.31448
 Alpha  occ. eigenvalues --   -0.30344  -0.27997  -0.26742  -0.26544  -0.25886
 Alpha  occ. eigenvalues --   -0.25739  -0.25030  -0.24689  -0.24404  -0.23968
 Alpha  occ. eigenvalues --   -0.23595  -0.22899  -0.20957  -0.17950  -0.13262
 Alpha virt. eigenvalues --   -0.05288  -0.03401  -0.01425  -0.00494  -0.00057
 Alpha virt. eigenvalues --    0.00630   0.00808   0.01033   0.01673   0.01907
 Alpha virt. eigenvalues --    0.02137   0.02542   0.02931   0.03161   0.03229

 Mulliken charges:
               1
     1  C    0.225750
     2  C   -0.107632
     3  C    0.176552
     4  C    0.201247
     5  C    0.185111
     6  C    0.015900
     7  C    0.263157
     8  C    0.421775
     9  C    0.030976
    10  C   -0.851673
    11  C    0.241634
    12  C    0.109135
    13  C   -0.523908
    14  C   -0.616290
    15  H    0.123763
    16  H    0.124605
    17  H    0.129986
    18  N   -0.028631
    19  N   -0.151022
    20  O   -0.523876
    21  O   -0.498933
    22  O   -0.518287
    23  O   -0.455791
    24  C   -0.175529
    25  H    0.162844
    26  H    0.162334
    27  H    0.166147
    28  C   -0.198409
    29  H    0.160344
    30  H    0.161391
    31  H    0.167652
    32  C   -0.362424
    33  C   -0.343181
    34  S   -0.623581
    35  C   -0.234236
    36  H    0.155729
    37  C    0.650023
    38  O   -0.168689
    39  C    0.855512
    40  C   -0.236183
    41  C    0.036418
    42  S   -0.223225
    43  H    0.172321
    44  H    0.158983
    45  H    0.158355
    46  C   -0.623877
    47  O   -0.167242
    48  C   -0.358297
    49  H    0.156749
    50  C   -0.249292
    51  H    0.183834
    52  H    0.155809
    53  H    0.171113
    54  H    0.155059
 Sum of Mulliken charges =  -2.00000

 Dipole moment (field-independent basis, Debye):
    X=             26.4109    Y=             -0.8086    Z=              1.8856  Tot=             26.4905
 Quadrupole moment (field-independent basis, Debye-Ang):
   XX=           -374.1066   YY=           -287.6970   ZZ=           -237.3531
   XY=            -10.3188   XZ=              7.0947   YZ=             17.1967

 Normal termination of Gaussian 16 at Thu Oct 28 12:12:41 2021.
