 Gaussian 16, Revision C.01,
 Gaussian 16:  ES64L-G16RevC.01  3-Jul-2019

 ---------------------------------------------------------------
 # opt=modredundant b3lyp/6-311+g(d,p) scrf=(pcm, solvent=water)
 ---------------------------------------------------------------

 ----------
 NDI_35.pdb
 ----------
 Symbolic Z-matrix:
 Charge = -2 Multiplicity = 1

 SCF Done:  E(RB3LYP) =  -2359.59802304     A.U. after   16 cycles
 SCF Done:  E(RB3LYP) =  -2359.60818459     A.U. after   16 cycles
 SCF Done:  E(RB3LYP) =  -2359.61867127     A.U. after   16 cycles
 SCF Done:  E(RB3LYP) =  -2359.62032085     A.U. after   15 cycles
 SCF Done:  E(RB3LYP) =  -2359.62168174     A.U. after   15 cycles
 SCF Done:  E(RB3LYP) =  -2359.62335564     A.U. after   17 cycles
 SCF Done:  E(RB3LYP) =  -2359.62456345     A.U. after   13 cycles
 SCF Done:  E(RB3LYP) =  -2359.62490367     A.U. after   13 cycles
 SCF Done:  E(RB3LYP) =  -2359.62500110     A.U. after   13 cycles
 SCF Done:  E(RB3LYP) =  -2359.62505512     A.U. after   12 cycles
 SCF Done:  E(RB3LYP) =  -2359.62511650     A.U. after   10 cycles
 SCF Done:  E(RB3LYP) =  -2359.62511669     A.U. after   10 cycles
 SCF Done:  E(RB3LYP) =  -2359.62511676     A.U. after    8 cycles
 SCF Done:  E(RB3LYP) =  -2359.62511100     A.U. after   12 cycles
 SCF Done:  E(RB3LYP) =  -2359.62511693     A.U. after   12 cycles
 SCF Done:  E(RB3LYP) =  -2359.62511696     A.U. after    8 cycles
 SCF Done:  E(RB3LYP) =  -2359.62511694     A.U. after    9 cycles
 SCF Done:  E(RB3LYP) =  -2359.62511696     A.U. after    8 cycles
 SCF Done:  E(RB3LYP) =  -2359.62511695     A.U. after    9 cycles
 SCF Done:  E(RB3LYP) =  -2359.62511704     A.U. after   10 cycles
 Optimization completed.
    -- Stationary point found.

                         Standard orientation:
 ---------------------------------------------------------------------
 Center     Atomic      Atomic             Coordinates (Angstroms)
 Number     Number       Type             X           Y           Z
 ---------------------------------------------------------------------
      1          6           0       -2.762998   -2.973880    0.308329
      2          6           0       -2.378368   -1.605750    0.117174
      3          6           0       -3.363279   -0.585906    0.082016
      4          6           0       -4.736027   -0.892947    0.234030
      5          6           0       -5.154886   -2.254479    0.432201
      6          6           0       -1.001264   -1.258430    0.058517
      7          6           0       -2.943703    0.781770   -0.130185
      8          6           0       -1.559750    1.090647   -0.298870
      9          6           0       -0.564932    0.035816   -0.114147
     10          6           0       -1.214569    2.401870   -0.777644
     11          6           0       -3.591018    3.144333   -0.486242
     12          6           0       -3.947445    1.782633   -0.209951
     13          6           0       -5.328845    1.441504   -0.041031
     14          6           0       -5.713661    0.152357    0.177617
     15          1           0       -6.757258   -0.109331    0.299678
     16          1           0       -6.058141    2.239832   -0.101700
     17          1           0       -0.285871   -2.048771    0.247918
     18          7           0       -2.235922    3.381582   -0.746027
     19          7           0       -4.138390   -3.228913    0.447034
     20          8           0       -1.964235   -3.939693    0.361968
     21          8           0       -6.349759   -2.602562    0.583693
     22          8           0       -4.411638    4.093740   -0.531558
     23          8           0       -0.100844    2.747272   -1.232519
     24          6           0       -1.842733    4.741475   -1.121316
     25          1           0       -0.881491    4.977467   -0.669534
     26          1           0       -1.742506    4.837194   -2.206512
     27          1           0       -2.612576    5.423805   -0.774227
     28          6           0       -4.520292   -4.630511    0.634927
     29          1           0       -4.122812   -5.238225   -0.178641
     30          1           0       -4.115360   -5.013585    1.574067
     31          1           0       -5.603821   -4.684069    0.651440
     32          6           0        0.862266    0.302482    0.099940
     33          6           0        1.469555    1.331515    0.779330
     34         16           0        2.069403   -0.813614   -0.516369
     35          6           0        2.881713    1.211435    0.843443
     36          1           0        0.912441    2.141810    1.222504
     37          6           0        3.403921    0.099918    0.195631
     38          8           0        3.727960    2.074616    1.478630
     39          6           0        4.781969   -0.308543    0.083029
     40          6           0        3.157104    3.199778    2.151763
     41          6           0        5.308606   -1.405152   -0.588556
     42         16           0        6.101799    0.587969    0.837524
     43          1           0        3.994320    3.746319    2.581934
     44          1           0        2.620204    3.845855    1.451725
     45          1           0        2.481687    2.878669    2.949783
     46          6           0        6.726254   -1.525169   -0.500015
     47          8           0        4.473470   -2.251969   -1.259702
     48          6           0        7.288008   -0.521714    0.237048
     49          1           0        7.301103   -2.315026   -0.961584
     50          6           0        5.055754   -3.378210   -1.919892
     51          1           0        8.331643   -0.363834    0.461622
     52          1           0        5.566372   -4.031856   -1.206702
     53          1           0        4.228150   -3.916918   -2.377416
     54          1           0        5.756967   -3.059980   -2.696861
 ---------------------------------------------------------------------

 The electronic state is 1-A.
 Alpha  occ. eigenvalues --  -88.87564 -88.86621 -19.15864 -19.15798 -19.06945
 Alpha  occ. eigenvalues --  -19.06814 -19.06614 -19.06243 -14.34740 -14.34355
 Alpha  occ. eigenvalues --  -10.25379 -10.25111 -10.24964 -10.24907 -10.23436
 Alpha  occ. eigenvalues --  -10.23221 -10.22254 -10.22154 -10.20938 -10.20093
 Alpha  occ. eigenvalues --  -10.20057 -10.19723 -10.18610 -10.18454 -10.18183
 Alpha  occ. eigenvalues --  -10.17969 -10.17966 -10.17604 -10.16480 -10.15890
 Alpha  occ. eigenvalues --  -10.15879 -10.15625 -10.15431 -10.15431 -10.15370
 Alpha  occ. eigenvalues --  -10.15286  -7.96129  -7.95194  -5.92437  -5.92055
 Alpha  occ. eigenvalues --   -5.91697  -5.91515  -5.91136  -5.90733  -1.07150
 Alpha  occ. eigenvalues --   -1.07022  -1.02599  -1.02309  -1.00162  -0.99836
 Alpha  occ. eigenvalues --   -0.91283  -0.90892  -0.88832  -0.87307  -0.86127
 Alpha  occ. eigenvalues --   -0.81343  -0.79123  -0.77353  -0.75468  -0.74272
 Alpha  occ. eigenvalues --   -0.73456  -0.72909  -0.71593  -0.71235  -0.69138
 Alpha  occ. eigenvalues --   -0.68818  -0.67956  -0.66215  -0.62696  -0.61801
 Alpha  occ. eigenvalues --   -0.61014  -0.59967  -0.58810  -0.57246  -0.55001
 Alpha  occ. eigenvalues --   -0.54853  -0.53568  -0.53300  -0.52898  -0.50752
 Alpha  occ. eigenvalues --   -0.49546  -0.48119  -0.47356  -0.47030  -0.46922
 Alpha  occ. eigenvalues --   -0.46681  -0.46143  -0.45786  -0.45478  -0.44910
 Alpha  occ. eigenvalues --   -0.44456  -0.44292  -0.44175  -0.42621  -0.41949
 Alpha  occ. eigenvalues --   -0.41751  -0.41102  -0.40831  -0.40508  -0.40439
 Alpha  occ. eigenvalues --   -0.40238  -0.40010  -0.39081  -0.38394  -0.38262
 Alpha  occ. eigenvalues --   -0.38194  -0.37693  -0.37416  -0.37014  -0.36903
 Alpha  occ. eigenvalues --   -0.36393  -0.36113  -0.35072  -0.34969  -0.34474
 Alpha  occ. eigenvalues --   -0.33368  -0.32941  -0.32747  -0.32606  -0.31653
 Alpha  occ. eigenvalues --   -0.30331  -0.27905  -0.26717  -0.26453  -0.25830
 Alpha  occ. eigenvalues --   -0.25702  -0.24991  -0.24695  -0.24287  -0.23873
 Alpha  occ. eigenvalues --   -0.23713  -0.22863  -0.20924  -0.18019  -0.13235
 Alpha virt. eigenvalues --   -0.04936  -0.03354  -0.01402  -0.00471  -0.00041
 Alpha virt. eigenvalues --    0.00615   0.00868   0.00989   0.01545   0.01645
 Alpha virt. eigenvalues --    0.02026   0.02571   0.02760   0.03122   0.03204

 Mulliken charges:
               1
     1  C    0.308868
     2  C   -0.205538
     3  C    0.086733
     4  C    0.181442
     5  C    0.210251
     6  C   -0.335102
     7  C    0.218170
     8  C    0.305853
     9  C    0.345425
    10  C   -0.573088
    11  C    0.238000
    12  C    0.065859
    13  C   -0.505377
    14  C   -0.593616
    15  H    0.123347
    16  H    0.123802
    17  H    0.134925
    18  N   -0.074403
    19  N   -0.154705
    20  O   -0.526522
    21  O   -0.504535
    22  O   -0.516996
    23  O   -0.425630
    24  C   -0.188075
    25  H    0.162611
    26  H    0.162439
    27  H    0.166269
    28  C   -0.201343
    29  H    0.159139
    30  H    0.162065
    31  H    0.167839
    32  C    0.034664
    33  C   -0.495503
    34  S   -0.597691
    35  C   -0.368706
    36  H    0.147624
    37  C    0.637080
    38  O   -0.168970
    39  C    0.786198
    40  C   -0.235412
    41  C    0.022704
    42  S   -0.233642
    43  H    0.172188
    44  H    0.159109
    45  H    0.159224
    46  C   -0.599550
    47  O   -0.168361
    48  C   -0.341429
    49  H    0.156746
    50  C   -0.250395
    51  H    0.183421
    52  H    0.156515
    53  H    0.170906
    54  H    0.155174
 Sum of Mulliken charges =  -2.00000

 Dipole moment (field-independent basis, Debye):
    X=             26.8274    Y=             -0.7808    Z=              1.8145  Tot=             26.9000
 Quadrupole moment (field-independent basis, Debye-Ang):
   XX=           -377.7722   YY=           -291.7638   ZZ=           -231.7463
   XY=            -10.2769   XZ=             -0.2792   YZ=             26.6534

 Normal termination of Gaussian 16 at Thu Oct 28 13:31:32 2021.
