 Gaussian 16, Revision C.01,
 Gaussian 16:  ES64L-G16RevC.01  3-Jul-2019

 ---------------------------------------------------------------
 # opt=modredundant b3lyp/6-311+g(d,p) scrf=(pcm, solvent=water)
 ---------------------------------------------------------------

 -----------
 NDI_-70.pdb
 -----------
 Symbolic Z-matrix:
 Charge = -2 Multiplicity = 1

 SCF Done:  E(RB3LYP) =  -2359.60502287     A.U. after   16 cycles
 SCF Done:  E(RB3LYP) =  -2359.62204996     A.U. after   13 cycles
 SCF Done:  E(RB3LYP) =  -2359.62443510     A.U. after   13 cycles
 SCF Done:  E(RB3LYP) =  -2359.62448886     A.U. after   12 cycles
 SCF Done:  E(RB3LYP) =  -2359.62467166     A.U. after   12 cycles
 SCF Done:  E(RB3LYP) =  -2359.62471115     A.U. after   11 cycles
 SCF Done:  E(RB3LYP) =  -2359.62472171     A.U. after   11 cycles
 SCF Done:  E(RB3LYP) =  -2359.62473070     A.U. after   10 cycles
 SCF Done:  E(RB3LYP) =  -2359.62473987     A.U. after   10 cycles
 SCF Done:  E(RB3LYP) =  -2359.62474242     A.U. after   10 cycles
 SCF Done:  E(RB3LYP) =  -2359.62476704     A.U. after    9 cycles
 SCF Done:  E(RB3LYP) =  -2359.62476884     A.U. after    9 cycles
 SCF Done:  E(RB3LYP) =  -2359.62477144     A.U. after   10 cycles
 SCF Done:  E(RB3LYP) =  -2359.62477293     A.U. after   10 cycles
 SCF Done:  E(RB3LYP) =  -2359.62477347     A.U. after    9 cycles
 SCF Done:  E(RB3LYP) =  -2359.62477353     A.U. after    8 cycles
 SCF Done:  E(RB3LYP) =  -2359.62477351     A.U. after    8 cycles
 SCF Done:  E(RB3LYP) =  -2359.62477345     A.U. after    8 cycles
 SCF Done:  E(RB3LYP) =  -2359.62477338     A.U. after    8 cycles
 SCF Done:  E(RB3LYP) =  -2359.62477337     A.U. after    8 cycles
 Optimization completed.
    -- Stationary point found.

                         Standard orientation:
 ---------------------------------------------------------------------
 Center     Atomic      Atomic             Coordinates (Angstroms)
 Number     Number       Type             X           Y           Z
 ---------------------------------------------------------------------
      1          6           0        3.003010   -2.871491    0.482791
      2          6           0        2.511173   -1.540975    0.279544
      3          6           0        3.415102   -0.474996    0.045346
      4          6           0        4.814099   -0.699057    0.011230
      5          6           0        5.339826   -2.018291    0.219091
      6          6           0        1.111527   -1.277595    0.356823
      7          6           0        2.889935    0.855053   -0.174789
      8          6           0        1.481001    1.080703   -0.151069
      9          6           0        0.590420   -0.021320    0.181487
     10          6           0        0.985416    2.380662   -0.514615
     11          6           0        3.336527    3.235112   -0.690637
     12          6           0        3.808575    1.906437   -0.435459
     13          6           0        5.219166    1.646813   -0.459310
     14          6           0        5.706899    0.393447   -0.242588
     15          1           0        6.771099    0.194020   -0.264187
     16          1           0        5.883851    2.478021   -0.659788
     17          1           0        0.456628   -2.099734    0.618034
     18          7           0        1.943572    3.399958   -0.706672
     19          7           0        4.397462   -3.040738    0.446365
     20          8           0        2.280907   -3.877754    0.690204
     21          8           0        6.564127   -2.296103    0.205754
     22          8           0        4.084628    4.221175   -0.906707
     23          8           0       -0.217672    2.682483   -0.684780
     24          6           0        1.410942    4.730858   -1.006254
     25          1           0        0.960330    4.753852   -2.001728
     26          1           0        0.640778    4.990879   -0.280847
     27          1           0        2.233163    5.437769   -0.962655
     28          6           0        4.888943   -4.403317    0.662382
     29          1           0        4.527515   -4.785291    1.618142
     30          1           0        4.528794   -5.067021   -0.126274
     31          1           0        5.973586   -4.372788    0.654456
     32          6           0       -0.861156    0.150032    0.416440
     33          6           0       -1.499608    0.758560    1.464301
     34         16           0       -2.014964   -0.608813   -0.651723
     35          6           0       -2.915997    0.637970    1.406232
     36          1           0       -0.966376    1.281881    2.244675
     37          6           0       -3.392679   -0.079063    0.318055
     38          8           0       -3.799140    1.141998    2.317120
     39          6           0       -4.761034   -0.388588   -0.022730
     40          6           0       -3.274722    1.899103    3.411253
     41          6           0       -5.238644   -1.103500   -1.113049
     42         16           0       -6.127212    0.136388    0.961938
     43          1           0       -4.136626    2.213806    3.996616
     44          1           0       -2.615735    1.286488    4.032945
     45          1           0       -2.733018    2.779936    3.055435
     46          6           0       -6.658424   -1.227006   -1.160054
     47          8           0       -4.359250   -1.615017   -2.023295
     48          6           0       -7.268208   -0.607221   -0.106836
     49          1           0       -7.199802   -1.748331   -1.936227
     50          6           0       -4.894165   -2.336469   -3.135801
     51          1           0       -8.323937   -0.541693    0.107070
     52          1           0       -5.544793   -1.699337   -3.741820
     53          1           0       -4.036860   -2.648163   -3.729310
     54          1           0       -5.447378   -3.219442   -2.802914
 ---------------------------------------------------------------------

 The electronic state is 1-A.
 Alpha  occ. eigenvalues --  -88.87637 -88.86817 -19.15926 -19.15878 -19.06687
 Alpha  occ. eigenvalues --  -19.06645 -19.06531 -19.06237 -14.34614 -14.34366
 Alpha  occ. eigenvalues --  -10.25120 -10.24935 -10.24903 -10.24894 -10.23523
 Alpha  occ. eigenvalues --  -10.23330 -10.22283 -10.22210 -10.20974 -10.20211
 Alpha  occ. eigenvalues --  -10.20210 -10.19808 -10.18531 -10.18402 -10.18133
 Alpha  occ. eigenvalues --  -10.18016 -10.17943 -10.17486 -10.16727 -10.15974
 Alpha  occ. eigenvalues --  -10.15695 -10.15412 -10.15339 -10.15333 -10.15267
 Alpha  occ. eigenvalues --  -10.15199  -7.96201  -7.95386  -5.92509  -5.92126
 Alpha  occ. eigenvalues --   -5.91771  -5.91703  -5.91318  -5.90938  -1.07219
 Alpha  occ. eigenvalues --   -1.07102  -1.02376  -1.02265  -0.99900  -0.99776
 Alpha  occ. eigenvalues --   -0.91109  -0.90856  -0.88939  -0.87389  -0.86103
 Alpha  occ. eigenvalues --   -0.81256  -0.79041  -0.77403  -0.75490  -0.74248
 Alpha  occ. eigenvalues --   -0.73576  -0.72768  -0.71616  -0.71255  -0.69184
 Alpha  occ. eigenvalues --   -0.68749  -0.67938  -0.66284  -0.62571  -0.61746
 Alpha  occ. eigenvalues --   -0.60926  -0.59830  -0.58957  -0.57273  -0.55039
 Alpha  occ. eigenvalues --   -0.54913  -0.53487  -0.53400  -0.52845  -0.50628
 Alpha  occ. eigenvalues --   -0.49359  -0.48376  -0.47404  -0.47085  -0.47026
 Alpha  occ. eigenvalues --   -0.46643  -0.46056  -0.45764  -0.45444  -0.44814
 Alpha  occ. eigenvalues --   -0.44442  -0.44313  -0.44237  -0.42522  -0.42146
 Alpha  occ. eigenvalues --   -0.41722  -0.41101  -0.40880  -0.40498  -0.40369
 Alpha  occ. eigenvalues --   -0.40140  -0.39989  -0.39146  -0.38262  -0.38180
 Alpha  occ. eigenvalues --   -0.38041  -0.37733  -0.37307  -0.36938  -0.36827
 Alpha  occ. eigenvalues --   -0.36473  -0.36193  -0.35142  -0.34822  -0.34463
 Alpha  occ. eigenvalues --   -0.33320  -0.33018  -0.32780  -0.32385  -0.31659
 Alpha  occ. eigenvalues --   -0.30167  -0.27783  -0.26686  -0.26293  -0.25785
 Alpha  occ. eigenvalues --   -0.25540  -0.25001  -0.24573  -0.24142  -0.23954
 Alpha  occ. eigenvalues --   -0.23622  -0.23145  -0.20846  -0.18203  -0.13188
 Alpha virt. eigenvalues --   -0.04353  -0.03354  -0.01299  -0.00399  -0.00036
 Alpha virt. eigenvalues --    0.00550   0.00571   0.01015   0.01163   0.01445
 Alpha virt. eigenvalues --    0.01804   0.02572   0.02664   0.03062   0.03170

 Mulliken charges:
               1
     1  C    0.417647
     2  C   -0.136511
     3  C    0.119286
     4  C    0.148608
     5  C    0.232471
     6  C   -0.540878
     7  C    0.198986
     8  C    0.011581
     9  C    0.469397
    10  C   -0.399260
    11  C    0.211941
    12  C    0.108648
    13  C   -0.541053
    14  C   -0.633348
    15  H    0.121938
    16  H    0.122720
    17  H    0.124258
    18  N   -0.150420
    19  N   -0.161138
    20  O   -0.528090
    21  O   -0.513518
    22  O   -0.517403
    23  O   -0.382586
    24  C   -0.207255
    25  H    0.161665
    26  H    0.161133
    27  H    0.167711
    28  C   -0.199639
    29  H    0.159622
    30  H    0.159720
    31  H    0.167851
    32  C    0.074486
    33  C   -0.530506
    34  S   -0.322670
    35  C   -0.213601
    36  H    0.136300
    37  C    0.450468
    38  O   -0.175661
    39  C    0.725609
    40  C   -0.233002
    41  C    0.004838
    42  S   -0.249414
    43  H    0.171916
    44  H    0.158885
    45  H    0.161341
    46  C   -0.551850
    47  O   -0.172729
    48  C   -0.363639
    49  H    0.156975
    50  C   -0.249040
    51  H    0.183629
    52  H    0.156627
    53  H    0.170978
    54  H    0.155974
 Sum of Mulliken charges =  -2.00000

 Dipole moment (field-independent basis, Debye):
    X=            -27.7916    Y=             -1.4287    Z=              1.5911  Tot=             27.8737
 Quadrupole moment (field-independent basis, Debye-Ang):
   XX=           -381.7542   YY=           -304.7242   ZZ=           -217.0479
   XY=              7.8873   XZ=             13.1824   YZ=             29.8916

 Normal termination of Gaussian 16 at Thu Oct 28 13:09:02 2021.
