 Gaussian 16, Revision C.01,
 Gaussian 16:  ES64L-G16RevC.01  3-Jul-2019

 ---------------------------------------------------------------
 # opt=modredundant b3lyp/6-311+g(d,p) scrf=(pcm, solvent=water)
 ---------------------------------------------------------------

 ------------
 NDI_-100.pdb
 ------------
 Symbolic Z-matrix:
 Charge = -2 Multiplicity = 1

 SCF Done:  E(RB3LYP) =  -2359.60261743     A.U. after   17 cycles
 SCF Done:  E(RB3LYP) =  -2359.62111361     A.U. after   15 cycles
 SCF Done:  E(RB3LYP) =  -2359.62404356     A.U. after   14 cycles
 SCF Done:  E(RB3LYP) =  -2359.62422104     A.U. after   12 cycles
 SCF Done:  E(RB3LYP) =  -2359.62432329     A.U. after   13 cycles
 SCF Done:  E(RB3LYP) =  -2359.62435023     A.U. after   11 cycles
 SCF Done:  E(RB3LYP) =  -2359.62435529     A.U. after   12 cycles
 SCF Done:  E(RB3LYP) =  -2359.62436096     A.U. after   11 cycles
 SCF Done:  E(RB3LYP) =  -2359.62436299     A.U. after   11 cycles
 SCF Done:  E(RB3LYP) =  -2359.62436499     A.U. after   10 cycles
 SCF Done:  E(RB3LYP) =  -2359.62436943     A.U. after   10 cycles
 SCF Done:  E(RB3LYP) =  -2359.62437036     A.U. after   10 cycles
 SCF Done:  E(RB3LYP) =  -2359.62437089     A.U. after    9 cycles
 SCF Done:  E(RB3LYP) =  -2359.62437124     A.U. after    9 cycles
 SCF Done:  E(RB3LYP) =  -2359.62437148     A.U. after    9 cycles
 SCF Done:  E(RB3LYP) =  -2359.62437173     A.U. after    9 cycles
 SCF Done:  E(RB3LYP) =  -2359.62437205     A.U. after    9 cycles
 SCF Done:  E(RB3LYP) =  -2359.62437218     A.U. after    8 cycles
 SCF Done:  E(RB3LYP) =  -2359.62437221     A.U. after    8 cycles
 SCF Done:  E(RB3LYP) =  -2359.62437222     A.U. after    8 cycles
 Optimization completed.
    -- Stationary point found.

                         Standard orientation:
 ---------------------------------------------------------------------
 Center     Atomic      Atomic             Coordinates (Angstroms)
 Number     Number       Type             X           Y           Z
 ---------------------------------------------------------------------
      1          6           0        3.287709   -2.809371   -0.020427
      2          6           0        2.669451   -1.519810    0.062797
      3          6           0        3.446678   -0.344860   -0.081618
      4          6           0        4.843476   -0.419169   -0.315049
      5          6           0        5.493138   -1.694885   -0.409985
      6          6           0        1.263951   -1.415336    0.283213
      7          6           0        2.795670    0.943760    0.018733
      8          6           0        1.390407    1.021373    0.258716
      9          6           0        0.621517   -0.208923    0.376487
     10          6           0        0.784101    2.317709    0.399268
     11          6           0        3.001784    3.411680   -0.019357
     12          6           0        3.593204    2.111105   -0.119337
     13          6           0        5.004052    2.001625   -0.356581
     14          6           0        5.609367    0.785328   -0.451703
     15          1           0        6.674411    0.702113   -0.629521
     16          1           0        5.571805    2.918577   -0.454977
     17          1           0        0.696002   -2.333649    0.365131
     18          7           0        1.622856    3.441337    0.238149
     19          7           0        4.672025   -2.830308   -0.257859
     20          8           0        2.681707   -3.902798    0.102066
     21          8           0        6.723336   -1.843715   -0.615095
     22          8           0        3.639149    4.487714   -0.142213
     23          8           0       -0.422704    2.535182    0.653163
     24          6           0        0.971060    4.746364    0.371107
     25          1           0        0.159309    4.837660   -0.352082
     26          1           0        0.546137    4.859283    1.370338
     27          1           0        1.719578    5.512096    0.195528
     28          6           0        5.291073   -4.154526   -0.347200
     29          1           0        5.159973   -4.697938    0.590446
     30          1           0        4.823062   -4.736106   -1.143148
     31          1           0        6.347374   -4.017306   -0.553831
     32          6           0       -0.845781   -0.255160    0.594555
     33          6           0       -1.525169   -0.464952    1.763252
     34         16           0       -1.951787   -0.173402   -0.755587
     35          6           0       -2.939088   -0.526032    1.591058
     36          1           0       -1.025056   -0.550007    2.717298
     37          6           0       -3.366505   -0.382418    0.280623
     38          8           0       -3.857465   -0.715387    2.583258
     39          6           0       -4.718115   -0.401593   -0.229051
     40          6           0       -3.380616   -0.819031    3.927707
     41          6           0       -5.147449   -0.277843   -1.543555
     42         16           0       -6.124060   -0.589259    0.819122
     43          1           0       -4.264892   -0.950264    4.548494
     44          1           0       -2.721136   -1.683447    4.045420
     45          1           0       -2.854343    0.091023    4.229069
     46          6           0       -6.563244   -0.329129   -1.707165
     47          8           0       -4.231136   -0.125035   -2.543326
     48          6           0       -7.216884   -0.493124   -0.519426
     49          1           0       -7.071009   -0.249096   -2.657420
     50          6           0       -4.718705    0.027039   -3.878922
     51          1           0       -8.280097   -0.565821   -0.349287
     52          1           0       -5.349477    0.916156   -3.968389
     53          1           0       -3.837286    0.142753   -4.506662
     54          1           0       -5.278566   -0.857277   -4.196670
 ---------------------------------------------------------------------

 The electronic state is 1-A.
 Alpha  occ. eigenvalues --  -88.87676 -88.86655 -19.15951 -19.15905 -19.06614
 Alpha  occ. eigenvalues --  -19.06590 -19.06489 -19.06186 -14.34578 -14.34360
 Alpha  occ. eigenvalues --  -10.25052 -10.24872 -10.24864 -10.24863 -10.23589
 Alpha  occ. eigenvalues --  -10.23334 -10.22295 -10.22229 -10.20995 -10.20294
 Alpha  occ. eigenvalues --  -10.20264 -10.19860 -10.18512 -10.18372 -10.18126
 Alpha  occ. eigenvalues --  -10.18042 -10.17922 -10.17416 -10.16867 -10.16031
 Alpha  occ. eigenvalues --  -10.15584 -10.15354 -10.15285 -10.15272 -10.15224
 Alpha  occ. eigenvalues --  -10.15157  -7.96241  -7.95232  -5.92548  -5.92165
 Alpha  occ. eigenvalues --   -5.91811  -5.91551  -5.91166  -5.90778  -1.07251
 Alpha  occ. eigenvalues --   -1.07121  -1.02308  -1.02235  -0.99820  -0.99739
 Alpha  occ. eigenvalues --   -0.91058  -0.90824  -0.88954  -0.87371  -0.86071
 Alpha  occ. eigenvalues --   -0.81212  -0.79004  -0.77427  -0.75479  -0.74216
 Alpha  occ. eigenvalues --   -0.73640  -0.72673  -0.71637  -0.71228  -0.69183
 Alpha  occ. eigenvalues --   -0.68715  -0.67933  -0.66307  -0.62503  -0.61733
 Alpha  occ. eigenvalues --   -0.60895  -0.59738  -0.59026  -0.57285  -0.55049
 Alpha  occ. eigenvalues --   -0.54922  -0.53494  -0.53401  -0.52814  -0.50535
 Alpha  occ. eigenvalues --   -0.49343  -0.48387  -0.47423  -0.47104  -0.47085
 Alpha  occ. eigenvalues --   -0.46613  -0.46024  -0.45748  -0.45426  -0.44773
 Alpha  occ. eigenvalues --   -0.44448  -0.44342  -0.44189  -0.42575  -0.42197
 Alpha  occ. eigenvalues --   -0.41625  -0.41072  -0.40907  -0.40534  -0.40316
 Alpha  occ. eigenvalues --   -0.40077  -0.39981  -0.39189  -0.38201  -0.38179
 Alpha  occ. eigenvalues --   -0.37876  -0.37729  -0.37339  -0.36916  -0.36737
 Alpha  occ. eigenvalues --   -0.36453  -0.36209  -0.35147  -0.34671  -0.34532
 Alpha  occ. eigenvalues --   -0.33335  -0.33066  -0.32716  -0.32358  -0.31586
 Alpha  occ. eigenvalues --   -0.30020  -0.27756  -0.26679  -0.26233  -0.25720
 Alpha  occ. eigenvalues --   -0.25511  -0.25031  -0.24356  -0.24229  -0.23971
 Alpha  occ. eigenvalues --   -0.23444  -0.23338  -0.20820  -0.18273  -0.13162
 Alpha virt. eigenvalues --   -0.04199  -0.03454  -0.01134  -0.00357  -0.00048
 Alpha virt. eigenvalues --    0.00347   0.00543   0.00987   0.01220   0.01358
 Alpha virt. eigenvalues --    0.01723   0.02574   0.02695   0.03052   0.03154

 Mulliken charges:
               1
     1  C    0.411608
     2  C    0.001506
     3  C    0.189572
     4  C    0.144605
     5  C    0.251127
     6  C   -0.559372
     7  C    0.207083
     8  C   -0.202709
     9  C    0.369300
    10  C   -0.340987
    11  C    0.189819
    12  C    0.159104
    13  C   -0.559537
    14  C   -0.656511
    15  H    0.121941
    16  H    0.122543
    17  H    0.116261
    18  N   -0.173566
    19  N   -0.160907
    20  O   -0.527296
    21  O   -0.515804
    22  O   -0.515231
    23  O   -0.387515
    24  C   -0.216112
    25  H    0.160479
    26  H    0.159150
    27  H    0.168315
    28  C   -0.199472
    29  H    0.159507
    30  H    0.159124
    31  H    0.167756
    32  C    0.048224
    33  C   -0.421496
    34  S   -0.194485
    35  C   -0.137616
    36  H    0.132891
    37  C    0.208803
    38  O   -0.173123
    39  C    0.750970
    40  C   -0.236115
    41  C    0.035859
    42  S   -0.254445
    43  H    0.172214
    44  H    0.159544
    45  H    0.162430
    46  C   -0.524885
    47  O   -0.178928
    48  C   -0.371439
    49  H    0.157099
    50  C   -0.247128
    51  H    0.183819
    52  H    0.157233
    53  H    0.171055
    54  H    0.155737
 Sum of Mulliken charges =  -2.00000

 Dipole moment (field-independent basis, Debye):
    X=            -28.0285    Y=             -2.6368    Z=              0.2410  Tot=             28.1533
 Quadrupole moment (field-independent basis, Debye-Ang):
   XX=           -380.7331   YY=           -316.4211   ZZ=           -205.8200
   XY=             -1.4224   XZ=             22.5880   YZ=             -3.9932

 Normal termination of Gaussian 16 at Thu Oct 28 10:59:59 2021.
