 Gaussian 16, Revision C.01,
 Gaussian 16:  ES64L-G16RevC.01  3-Jul-2019

 --------------------------------------
 # opt=modredundant wb97xd/6-311+g(d,p)
 --------------------------------------

 -----------
 NDI_180.pdb
 -----------
 Symbolic Z-matrix:
 Charge =  0 Multiplicity = 1

 SCF Done:  E(RwB97XD) =  -2358.72007120     A.U. after   19 cycles
 SCF Done:  E(RwB97XD) =  -2358.75253019     A.U. after   20 cycles
 SCF Done:  E(RwB97XD) =  -2358.76323379     A.U. after   18 cycles
 SCF Done:  E(RwB97XD) =  -2358.76536772     A.U. after   15 cycles
 SCF Done:  E(RwB97XD) =  -2358.76589285     A.U. after   14 cycles
 SCF Done:  E(RwB97XD) =  -2358.76591804     A.U. after   13 cycles
 SCF Done:  E(RwB97XD) =  -2358.76597607     A.U. after   13 cycles
 SCF Done:  E(RwB97XD) =  -2358.76602649     A.U. after   13 cycles
 SCF Done:  E(RwB97XD) =  -2358.76599094     A.U. after   18 cycles
 SCF Done:  E(RwB97XD) =  -2358.76644669     A.U. after   16 cycles
 SCF Done:  E(RwB97XD) =  -2358.76778701     A.U. after   13 cycles
 SCF Done:  E(RwB97XD) =  -2358.76778883     A.U. after   13 cycles
 SCF Done:  E(RwB97XD) =  -2358.76779066     A.U. after   11 cycles
 SCF Done:  E(RwB97XD) =  -2358.76779221     A.U. after   11 cycles
 SCF Done:  E(RwB97XD) =  -2358.76779298     A.U. after   13 cycles
 SCF Done:  E(RwB97XD) =  -2358.76779378     A.U. after   11 cycles
 SCF Done:  E(RwB97XD) =  -2358.76779445     A.U. after   11 cycles
 SCF Done:  E(RwB97XD) =  -2358.76779453     A.U. after   11 cycles
 SCF Done:  E(RwB97XD) =  -2358.76779462     A.U. after   10 cycles
 SCF Done:  E(RwB97XD) =  -2358.76779468     A.U. after   10 cycles
 Optimization completed.
    -- Stationary point found.

                         Standard orientation:
 ---------------------------------------------------------------------
 Center     Atomic      Atomic             Coordinates (Angstroms)
 Number     Number       Type             X           Y           Z
 ---------------------------------------------------------------------
      1          6           0       -3.640286   -2.610997   -0.016195
      2          6           0       -2.832300   -1.371887    0.127390
      3          6           0       -3.431623   -0.109605   -0.055266
      4          6           0       -4.790685    0.000926   -0.397724
      5          6           0       -5.624555   -1.221879   -0.550524
      6          6           0       -1.498192   -1.469177    0.382791
      7          6           0       -2.633460    1.038572    0.112244
      8          6           0       -1.258062    0.923449    0.462836
      9          6           0       -0.643301   -0.335289    0.531964
     10          6           0       -0.584065    2.177440    0.890749
     11          6           0       -2.453598    3.546816    0.027314
     12          6           0       -3.239904    2.296875   -0.105867
     13          6           0       -4.569104    2.389705   -0.459009
     14          6           0       -5.356212    1.240114   -0.599211
     15          1           0       -6.403085    1.307183   -0.867542
     16          1           0       -4.988586    3.374065   -0.627255
     17          1           0       -1.093213   -2.468602    0.442102
     18          7           0       -1.155658    3.393454    0.498884
     19          7           0       -4.985944   -2.449763   -0.339388
     20          8           0       -3.172029   -3.717685    0.135630
     21          8           0       -6.797530   -1.165232   -0.840180
     22          8           0       -2.913499    4.637794   -0.229558
     23          8           0        0.411929    2.192420    1.578072
     24          6           0       -0.388742    4.599496    0.804866
     25          1           0       -0.451160    4.833462    1.869377
     26          1           0        0.654801    4.430848    0.546555
     27          1           0       -0.805750    5.417869    0.224753
     28          6           0       -5.768637   -3.677454   -0.474695
     29          1           0       -5.349124   -4.297151   -1.267561
     30          1           0       -5.735816   -4.238838    0.459081
     31          1           0       -6.790504   -3.398962   -0.713949
     32          6           0        0.796019   -0.637316    0.580205
     33          6           0        1.320774   -1.916092    0.648012
     34         16           0        2.047244    0.485117    0.156859
     35          6           0        2.698226   -1.976755    0.381026
     36          1           0        0.743727   -2.792266    0.900409
     37          6           0        3.252861   -0.751538    0.059908
     38          8           0        3.479233   -3.081997    0.412886
     39          6           0        4.634535   -0.472562   -0.254129
     40          6           0        2.860827   -4.311189    0.731782
     41          6           0        5.185726    0.748698   -0.586940
     42         16           0        5.874620   -1.697733   -0.257984
     43          1           0        3.648026   -5.062272    0.703776
     44          1           0        2.421193   -4.284661    1.734971
     45          1           0        2.088758   -4.568514   -0.001807
     46          6           0        6.584269    0.701126   -0.837477
     47          8           0        4.397985    1.843535   -0.651942
     48          6           0        7.077541   -0.560526   -0.693772
     49          1           0        7.191123    1.552349   -1.110130
     50          6           0        5.016961    3.085542   -0.918359
     51          1           0        8.099221   -0.883239   -0.825960
     52          1           0        5.487712    3.088794   -1.907339
     53          1           0        4.222739    3.829408   -0.895337
     54          1           0        5.762513    3.326895   -0.153391
 ---------------------------------------------------------------------

 The electronic state is 1-A.
 Alpha  occ. eigenvalues --  -89.04975 -89.04882 -19.29403 -19.29192 -19.24956
 Alpha  occ. eigenvalues --  -19.24922 -19.24494 -19.24304 -14.50501 -14.49953
 Alpha  occ. eigenvalues --  -10.42691 -10.42550 -10.42253 -10.42011 -10.35871
 Alpha  occ. eigenvalues --  -10.35622 -10.35524 -10.34840 -10.34685 -10.34087
 Alpha  occ. eigenvalues --  -10.33726 -10.33584 -10.33551 -10.33514 -10.33460
 Alpha  occ. eigenvalues --  -10.33385 -10.33294 -10.32776 -10.32694 -10.32420
 Alpha  occ. eigenvalues --  -10.32358 -10.32197 -10.32168 -10.31974 -10.30578
 Alpha  occ. eigenvalues --  -10.29984  -8.08996  -8.08884  -6.03838  -6.03737
 Alpha  occ. eigenvalues --   -6.03442  -6.03319  -6.03085  -6.02958  -1.19395
 Alpha  occ. eigenvalues --   -1.19165  -1.19084  -1.18918  -1.17492  -1.17059
 Alpha  occ. eigenvalues --   -1.06636  -1.06195  -1.02951  -1.00841  -0.99205
 Alpha  occ. eigenvalues --   -0.97036  -0.94462  -0.90606  -0.88459  -0.87539
 Alpha  occ. eigenvalues --   -0.86323  -0.85169  -0.85062  -0.83056  -0.82349
 Alpha  occ. eigenvalues --   -0.81082  -0.80062  -0.78475  -0.76718  -0.75402
 Alpha  occ. eigenvalues --   -0.75006  -0.74341  -0.70185  -0.69184  -0.68072
 Alpha  occ. eigenvalues --   -0.66574  -0.65910  -0.65382  -0.64280  -0.63823
 Alpha  occ. eigenvalues --   -0.62836  -0.60516  -0.59583  -0.59033  -0.58952
 Alpha  occ. eigenvalues --   -0.58192  -0.57718  -0.57628  -0.57336  -0.57236
 Alpha  occ. eigenvalues --   -0.56776  -0.55909  -0.55353  -0.55174  -0.54300
 Alpha  occ. eigenvalues --   -0.53960  -0.53708  -0.53532  -0.53015  -0.52289
 Alpha  occ. eigenvalues --   -0.51541  -0.51303  -0.50792  -0.50647  -0.50414
 Alpha  occ. eigenvalues --   -0.50078  -0.49721  -0.49395  -0.49015  -0.48485
 Alpha  occ. eigenvalues --   -0.47997  -0.47817  -0.46734  -0.45751  -0.45319
 Alpha  occ. eigenvalues --   -0.44812  -0.44289  -0.42574  -0.41944  -0.41683
 Alpha  occ. eigenvalues --   -0.41151  -0.39831  -0.39505  -0.38384  -0.37950
 Alpha  occ. eigenvalues --   -0.37232  -0.37131  -0.36421  -0.36403  -0.34543
 Alpha  occ. eigenvalues --   -0.33061  -0.31984  -0.31594  -0.25757
 Alpha virt. eigenvalues --   -0.07037  -0.01308   0.00699   0.02544   0.03592
 Alpha virt. eigenvalues --    0.05152   0.05692   0.05914   0.06660   0.07070
 Alpha virt. eigenvalues --    0.07113   0.07316   0.07760   0.07913   0.08274

 Mulliken charges:
               1
     1  C    0.434095
     2  C   -0.090255
     3  C    0.097546
     4  C    0.196690
     5  C    0.348787
     6  C    0.092470
     7  C   -0.008634
     8  C    0.393171
     9  C    0.326946
    10  C   -0.675745
    11  C    0.334584
    12  C    0.078332
    13  C   -0.516927
    14  C   -0.658959
    15  H    0.186253
    16  H    0.187639
    17  H    0.172795
    18  N    0.103391
    19  N   -0.097829
    20  O   -0.270196
    21  O   -0.264321
    22  O   -0.280382
    23  O   -0.199005
    24  C   -0.261900
    25  H    0.201302
    26  H    0.187978
    27  H    0.197967
    28  C   -0.281401
    29  H    0.192890
    30  H    0.192174
    31  H    0.199877
    32  C   -0.014666
    33  C   -0.316565
    34  S   -0.772671
    35  C   -0.400218
    36  H    0.147784
    37  C    0.558931
    38  O   -0.115249
    39  C    0.923657
    40  C   -0.296898
    41  C   -0.023691
    42  S   -0.272164
    43  H    0.185695
    44  H    0.164018
    45  H    0.161619
    46  C   -0.521115
    47  O   -0.098396
    48  C   -0.363552
    49  H    0.156997
    50  C   -0.310424
    51  H    0.188118
    52  H    0.155969
    53  H    0.180395
    54  H    0.163095
 Sum of Mulliken charges =  -0.00000

 Dipole moment (field-independent basis, Debye):
    X=              3.6620    Y=             -0.4789    Z=             -0.6817  Tot=              3.7555
 Quadrupole moment (field-independent basis, Debye-Ang):
   XX=           -208.2595   YY=           -208.8951   ZZ=           -224.0967
   XY=             11.8401   XZ=             -8.8136   YZ=             -4.3846

 Normal termination of Gaussian 16 at Wed Nov 18 04:17:29 2020.
