 Gaussian 16, Revision C.01,
 Gaussian 16:  ES64L-G16RevC.01  3-Jul-2019

 --------------------------------------
 # opt=modredundant wb97xd/6-311+g(d,p)
 --------------------------------------

 -----------
 NDI_160.pdb
 -----------
 Symbolic Z-matrix:
 Charge =  0 Multiplicity = 1

 SCF Done:  E(RwB97XD) =  -2358.73324588     A.U. after   20 cycles
 SCF Done:  E(RwB97XD) =  -2358.75431301     A.U. after   21 cycles
 SCF Done:  E(RwB97XD) =  -2358.76435639     A.U. after   17 cycles
 SCF Done:  E(RwB97XD) =  -2358.76744576     A.U. after   16 cycles
 SCF Done:  E(RwB97XD) =  -2358.76864814     A.U. after   17 cycles
 SCF Done:  E(RwB97XD) =  -2358.76898300     A.U. after   17 cycles
 SCF Done:  E(RwB97XD) =  -2358.76938047     A.U. after   14 cycles
 SCF Done:  E(RwB97XD) =  -2358.76945999     A.U. after   15 cycles
 SCF Done:  E(RwB97XD) =  -2358.76956381     A.U. after   16 cycles
 SCF Done:  E(RwB97XD) =  -2358.76955712     A.U. after   17 cycles
 SCF Done:  E(RwB97XD) =  -2358.77113314     A.U. after   14 cycles
 SCF Done:  E(RwB97XD) =  -2358.77116391     A.U. after   14 cycles
 SCF Done:  E(RwB97XD) =  -2358.77122360     A.U. after   14 cycles
 SCF Done:  E(RwB97XD) =  -2358.77126703     A.U. after   14 cycles
 SCF Done:  E(RwB97XD) =  -2358.77127875     A.U. after   14 cycles
 SCF Done:  E(RwB97XD) =  -2358.77128219     A.U. after   13 cycles
 SCF Done:  E(RwB97XD) =  -2358.77128368     A.U. after   13 cycles
 SCF Done:  E(RwB97XD) =  -2358.77128399     A.U. after   11 cycles
 SCF Done:  E(RwB97XD) =  -2358.77128411     A.U. after   10 cycles
 SCF Done:  E(RwB97XD) =  -2358.77128411     A.U. after   11 cycles
 Optimization completed.
    -- Stationary point found.

                         Standard orientation:
 ---------------------------------------------------------------------
 Center     Atomic      Atomic             Coordinates (Angstroms)
 Number     Number       Type             X           Y           Z
 ---------------------------------------------------------------------
      1          6           0       -3.555394   -2.659166   -0.271585
      2          6           0       -2.777910   -1.421071   -0.004212
      3          6           0       -3.403794   -0.160401   -0.087358
      4          6           0       -4.761326   -0.050321   -0.442123
      5          6           0       -5.563744   -1.272839   -0.718014
      6          6           0       -1.443176   -1.508438    0.267689
      7          6           0       -2.641962    0.992724    0.188694
      8          6           0       -1.272407    0.881534    0.548889
      9          6           0       -0.640252   -0.363310    0.532192
     10          6           0       -0.617441    2.104615    1.093913
     11          6           0       -2.514752    3.501116    0.332128
     12          6           0       -3.273960    2.251549    0.074377
     13          6           0       -4.599296    2.342702   -0.289072
     14          6           0       -5.352957    1.188289   -0.543065
     15          1           0       -6.397239    1.253318   -0.822138
     16          1           0       -5.044226    3.326415   -0.376245
     17          1           0       -0.984915   -2.488571    0.239439
     18          7           0       -1.216533    3.337134    0.801768
     19          7           0       -4.899216   -2.499317   -0.605743
     20          8           0       -3.065206   -3.764302   -0.205763
     21          8           0       -6.733014   -1.216012   -1.022406
     22          8           0       -2.998992    4.599455    0.169527
     23          8           0        0.372644    2.076128    1.785981
     24          6           0       -0.481767    4.529930    1.219329
     25          1           0       -0.564380    4.672287    2.298584
     26          1           0        0.568831    4.406304    0.964295
     27          1           0       -0.908976    5.385411    0.703798
     28          6           0       -5.649793   -3.727665   -0.863112
     29          1           0       -5.200271   -4.266563   -1.697422
     30          1           0       -5.621510   -4.367256    0.019108
     31          1           0       -6.673254   -3.452159   -1.098876
     32          6           0        0.805266   -0.604229    0.608813
     33          6           0        1.395781   -1.791179    0.976993
     34         16           0        1.960317    0.448869   -0.127396
     35          6           0        2.780753   -1.822605    0.713562
     36          1           0        0.855325   -2.598082    1.451648
     37          6           0        3.254157   -0.683134    0.091184
     38          8           0        3.633801   -2.832342    1.004585
     39          6           0        4.612272   -0.406807   -0.318489
     40          6           0        3.095916   -3.985194    1.618196
     41          6           0        5.077591    0.724083   -0.957015
     42         16           0        5.930436   -1.514174   -0.049397
     43          1           0        3.930925   -4.667799    1.764681
     44          1           0        2.649919   -3.744725    2.589534
     45          1           0        2.346527   -4.462204    0.976843
     46          6           0        6.474118    0.703439   -1.223207
     47          8           0        4.216660    1.717981   -1.271792
     48          6           0        7.052272   -0.448884   -0.783624
     49          1           0        7.020072    1.496271   -1.713755
     50          6           0        4.748733    2.883884   -1.866235
     51          1           0        8.091921   -0.730140   -0.856583
     52          1           0        5.208442    2.659521   -2.834810
     53          1           0        3.907459    3.558298   -2.015421
     54          1           0        5.484829    3.360861   -1.210318
 ---------------------------------------------------------------------

 The electronic state is 1-A.
 Alpha  occ. eigenvalues --  -89.04860 -89.04783 -19.29248 -19.29079 -19.25004
 Alpha  occ. eigenvalues --  -19.24999 -19.24479 -19.24436 -14.50566 -14.50000
 Alpha  occ. eigenvalues --  -10.42777 -10.42614 -10.42302 -10.42165 -10.35600
 Alpha  occ. eigenvalues --  -10.35475 -10.35284 -10.34741 -10.34593 -10.34202
 Alpha  occ. eigenvalues --  -10.33867 -10.33837 -10.33681 -10.33656 -10.33496
 Alpha  occ. eigenvalues --  -10.33272 -10.33187 -10.32895 -10.32629 -10.32576
 Alpha  occ. eigenvalues --  -10.32525 -10.32214 -10.31954 -10.31952 -10.30342
 Alpha  occ. eigenvalues --  -10.29804  -8.08885  -8.08804  -6.03738  -6.03647
 Alpha  occ. eigenvalues --   -6.03333  -6.03251  -6.02951  -6.02893  -1.19464
 Alpha  occ. eigenvalues --   -1.19090  -1.18973  -1.18801  -1.17562  -1.17116
 Alpha  occ. eigenvalues --   -1.06706  -1.06229  -1.03109  -1.00762  -0.99106
 Alpha  occ. eigenvalues --   -0.97114  -0.94603  -0.90612  -0.88582  -0.87461
 Alpha  occ. eigenvalues --   -0.86203  -0.85189  -0.84934  -0.82943  -0.82384
 Alpha  occ. eigenvalues --   -0.81105  -0.79945  -0.78435  -0.76776  -0.75464
 Alpha  occ. eigenvalues --   -0.75059  -0.74350  -0.70161  -0.69083  -0.67999
 Alpha  occ. eigenvalues --   -0.66610  -0.65901  -0.65234  -0.64164  -0.63775
 Alpha  occ. eigenvalues --   -0.62869  -0.60612  -0.59652  -0.59046  -0.58901
 Alpha  occ. eigenvalues --   -0.58272  -0.57654  -0.57583  -0.57282  -0.57203
 Alpha  occ. eigenvalues --   -0.56701  -0.55864  -0.55403  -0.55258  -0.54271
 Alpha  occ. eigenvalues --   -0.53832  -0.53787  -0.53591  -0.53070  -0.52407
 Alpha  occ. eigenvalues --   -0.51558  -0.51181  -0.50764  -0.50504  -0.50406
 Alpha  occ. eigenvalues --   -0.50096  -0.49717  -0.49421  -0.48955  -0.48437
 Alpha  occ. eigenvalues --   -0.48045  -0.47711  -0.46670  -0.45843  -0.45476
 Alpha  occ. eigenvalues --   -0.44624  -0.44254  -0.42463  -0.41862  -0.41530
 Alpha  occ. eigenvalues --   -0.41291  -0.40017  -0.39569  -0.38451  -0.37729
 Alpha  occ. eigenvalues --   -0.37292  -0.37104  -0.36588  -0.36361  -0.34690
 Alpha  occ. eigenvalues --   -0.33090  -0.31943  -0.31516  -0.25692
 Alpha virt. eigenvalues --   -0.07100  -0.00886   0.00587   0.02412   0.03497
 Alpha virt. eigenvalues --    0.05143   0.05725   0.05940   0.06661   0.06860
 Alpha virt. eigenvalues --    0.07085   0.07461   0.07716   0.07775   0.08054

 Mulliken charges:
               1
     1  C    0.453864
     2  C   -0.070320
     3  C    0.099045
     4  C    0.235023
     5  C    0.351146
     6  C   -0.081919
     7  C    0.049800
     8  C    0.312145
     9  C    0.268719
    10  C   -0.685463
    11  C    0.385361
    12  C    0.046994
    13  C   -0.544987
    14  C   -0.662104
    15  H    0.187156
    16  H    0.187858
    17  H    0.180800
    18  N    0.101861
    19  N   -0.096676
    20  O   -0.269368
    21  O   -0.266615
    22  O   -0.279440
    23  O   -0.195728
    24  C   -0.282825
    25  H    0.201589
    26  H    0.193419
    27  H    0.198095
    28  C   -0.277980
    29  H    0.193753
    30  H    0.191993
    31  H    0.200421
    32  C    0.176564
    33  C   -0.733114
    34  S   -0.756266
    35  C   -0.161816
    36  H    0.159390
    37  C    0.698612
    38  O   -0.115350
    39  C    0.988630
    40  C   -0.296608
    41  C    0.001694
    42  S   -0.260940
    43  H    0.184791
    44  H    0.161787
    45  H    0.164516
    46  C   -0.609182
    47  O   -0.111673
    48  C   -0.347913
    49  H    0.156414
    50  C   -0.311064
    51  H    0.187547
    52  H    0.156508
    53  H    0.180392
    54  H    0.161464
 Sum of Mulliken charges =  -0.00000

 Dipole moment (field-independent basis, Debye):
    X=              3.0515    Y=             -0.3514    Z=             -0.6845  Tot=              3.1470
 Quadrupole moment (field-independent basis, Debye-Ang):
   XX=           -210.8422   YY=           -211.9744   ZZ=           -219.3372
   XY=             10.1725   XZ=            -10.2323   YZ=            -10.7751

 Normal termination of Gaussian 16 at Wed Nov 18 02:36:20 2020.
