 Gaussian 16, Revision C.01,
 Gaussian 16:  ES64L-G16RevC.01  3-Jul-2019

 --------------------------------------
 # opt=modredundant wb97xd/6-311+g(d,p)
 --------------------------------------

 -----------
 NDI_-90.pdb
 -----------
 Symbolic Z-matrix:
 Charge =  0 Multiplicity = 1

 SCF Done:  E(RwB97XD) =  -2358.76465152     A.U. after   19 cycles
 SCF Done:  E(RwB97XD) =  -2358.77242842     A.U. after   16 cycles
 SCF Done:  E(RwB97XD) =  -2358.77315044     A.U. after   15 cycles
 SCF Done:  E(RwB97XD) =  -2358.77324790     A.U. after   14 cycles
 SCF Done:  E(RwB97XD) =  -2358.77333751     A.U. after   14 cycles
 SCF Done:  E(RwB97XD) =  -2358.77334814     A.U. after   13 cycles
 SCF Done:  E(RwB97XD) =  -2358.77335910     A.U. after   12 cycles
 SCF Done:  E(RwB97XD) =  -2358.77336166     A.U. after   11 cycles
 SCF Done:  E(RwB97XD) =  -2358.77336311     A.U. after   11 cycles
 SCF Done:  E(RwB97XD) =  -2358.77336386     A.U. after   11 cycles
 SCF Done:  E(RwB97XD) =  -2358.77336469     A.U. after   11 cycles
 SCF Done:  E(RwB97XD) =  -2358.77336551     A.U. after   11 cycles
 SCF Done:  E(RwB97XD) =  -2358.77336595     A.U. after   11 cycles
 SCF Done:  E(RwB97XD) =  -2358.77336625     A.U. after    9 cycles
 SCF Done:  E(RwB97XD) =  -2358.77336685     A.U. after   10 cycles
 SCF Done:  E(RwB97XD) =  -2358.77336716     A.U. after   10 cycles
 SCF Done:  E(RwB97XD) =  -2358.77336732     A.U. after   10 cycles
 SCF Done:  E(RwB97XD) =  -2358.77336742     A.U. after   10 cycles
 SCF Done:  E(RwB97XD) =  -2358.77336746     A.U. after   10 cycles
 SCF Done:  E(RwB97XD) =  -2358.77336748     A.U. after    8 cycles
 Optimization completed.
    -- Stationary point found.

                         Standard orientation:
 ---------------------------------------------------------------------
 Center     Atomic      Atomic             Coordinates (Angstroms)
 Number     Number       Type             X           Y           Z
 ---------------------------------------------------------------------
      1          6           0        3.256176   -2.832337    0.269683
      2          6           0        2.617283   -1.490744    0.214177
      3          6           0        3.398047   -0.343325   -0.027586
      4          6           0        4.790609   -0.449955   -0.225403
      5          6           0        5.456528   -1.780874   -0.179077
      6          6           0        1.265902   -1.372613    0.399791
      7          6           0        2.771202    0.919968   -0.071976
      8          6           0        1.370076    1.028100    0.128040
      9          6           0        0.617444   -0.114195    0.363667
     10          6           0        0.743838    2.385486    0.078370
     11          6           0        2.960961    3.411391   -0.385492
     12          6           0        3.570827    2.058079   -0.321082
     13          6           0        4.927425    1.934325   -0.512237
     14          6           0        5.544003    0.674465   -0.464014
     15          1           0        6.611566    0.570575   -0.613892
     16          1           0        5.507253    2.829307   -0.701678
     17          1           0        0.676401   -2.263217    0.582448
     18          7           0        1.585428    3.473384   -0.188870
     19          7           0        4.635352   -2.884440    0.066657
     20          8           0        2.627613   -3.843979    0.480330
     21          8           0        6.648394   -1.904016   -0.345025
     22          8           0        3.622053    4.403207   -0.597687
     23          8           0       -0.433528    2.584157    0.254209
     24          6           0        0.932406    4.781284   -0.242959
     25          1           0        0.149201    4.768848   -1.000529
     26          1           0        0.477383    5.008548    0.721388
     27          1           0        1.687964    5.521662   -0.487751
     28          6           0        5.244813   -4.212800    0.122652
     29          1           0        5.066265   -4.658764    1.101187
     30          1           0        4.799240   -4.854177   -0.637828
     31          1           0        6.310378   -4.100731   -0.053370
     32          6           0       -0.845477   -0.122516    0.588690
     33          6           0       -1.497423   -0.014726    1.777981
     34         16           0       -1.928300   -0.381276   -0.725478
     35          6           0       -2.906894   -0.117087    1.623156
     36          1           0       -0.988988    0.156210    2.716169
     37          6           0       -3.316824   -0.317207    0.325204
     38          8           0       -3.824842   -0.046122    2.616521
     39          6           0       -4.673353   -0.459376   -0.162294
     40          6           0       -3.366200    0.303412    3.905137
     41          6           0       -5.076366   -0.674986   -1.461593
     42         16           0       -6.068069   -0.363132    0.876236
     43          1           0       -4.251235    0.361745    4.536380
     44          1           0       -2.688296   -0.458628    4.305715
     45          1           0       -2.861788    1.275786    3.894738
     46          6           0       -6.487113   -0.760541   -1.623669
     47          8           0       -4.147644   -0.785753   -2.442708
     48          6           0       -7.139999   -0.608341   -0.438396
     49          1           0       -6.990613   -0.926106   -2.565272
     50          6           0       -4.609589   -0.985194   -3.761282
     51          1           0       -8.205545   -0.629869   -0.267484
     52          1           0       -5.237582   -0.150545   -4.091966
     53          1           0       -3.721661   -1.037940   -4.389008
     54          1           0       -5.169675   -1.922870   -3.847907
 ---------------------------------------------------------------------

 The electronic state is 1-A.
 Alpha  occ. eigenvalues --  -89.04342 -89.03989 -19.28421 -19.28404 -19.25292
 Alpha  occ. eigenvalues --  -19.25226 -19.24973 -19.24910 -14.50834 -14.50530
 Alpha  occ. eigenvalues --  -10.43096 -10.42856 -10.42782 -10.42751 -10.35221
 Alpha  occ. eigenvalues --  -10.34802 -10.34737 -10.34735 -10.34604 -10.34546
 Alpha  occ. eigenvalues --  -10.34195 -10.34142 -10.34124 -10.34115 -10.34092
 Alpha  occ. eigenvalues --  -10.33253 -10.33159 -10.33147 -10.32642 -10.32413
 Alpha  occ. eigenvalues --  -10.32147 -10.31886 -10.31743 -10.31064 -10.29304
 Alpha  occ. eigenvalues --  -10.29061  -8.08352  -8.08012  -6.03211  -6.02855
 Alpha  occ. eigenvalues --   -6.02810  -6.02459  -6.02413  -6.02101  -1.19751
 Alpha  occ. eigenvalues --   -1.19572  -1.18143  -1.18060  -1.17847  -1.17641
 Alpha  occ. eigenvalues --   -1.07014  -1.06646  -1.03587  -1.00136  -0.98573
 Alpha  occ. eigenvalues --   -0.97202  -0.95077  -0.90541  -0.89013  -0.87011
 Alpha  occ. eigenvalues --   -0.85634  -0.85456  -0.84142  -0.82742  -0.82180
 Alpha  occ. eigenvalues --   -0.81371  -0.79283  -0.78144  -0.77110  -0.75860
 Alpha  occ. eigenvalues --   -0.75366  -0.74456  -0.70142  -0.68601  -0.67721
 Alpha  occ. eigenvalues --   -0.66894  -0.65573  -0.64696  -0.64471  -0.63008
 Alpha  occ. eigenvalues --   -0.62861  -0.60961  -0.59985  -0.59394  -0.59124
 Alpha  occ. eigenvalues --   -0.57916  -0.57804  -0.57478  -0.56954  -0.56625
 Alpha  occ. eigenvalues --   -0.56398  -0.56145  -0.55669  -0.55402  -0.54224
 Alpha  occ. eigenvalues --   -0.54008  -0.53738  -0.53494  -0.53073  -0.52456
 Alpha  occ. eigenvalues --   -0.51743  -0.51347  -0.51266  -0.50446  -0.50063
 Alpha  occ. eigenvalues --   -0.49681  -0.49554  -0.49156  -0.48945  -0.48475
 Alpha  occ. eigenvalues --   -0.48442  -0.46905  -0.46750  -0.45899  -0.44953
 Alpha  occ. eigenvalues --   -0.44124  -0.43498  -0.41970  -0.41257  -0.41004
 Alpha  occ. eigenvalues --   -0.40725  -0.40554  -0.39834  -0.38703  -0.37635
 Alpha  occ. eigenvalues --   -0.37593  -0.37192  -0.36995  -0.36000  -0.34907
 Alpha  occ. eigenvalues --   -0.33603  -0.31375  -0.31089  -0.25274
 Alpha virt. eigenvalues --   -0.07331  -0.00058   0.00664   0.02400   0.02423
 Alpha virt. eigenvalues --    0.04962   0.06004   0.06227   0.06610   0.06889
 Alpha virt. eigenvalues --    0.07369   0.07404   0.07577   0.07723   0.08032

 Mulliken charges:
               1
     1  C    0.469856
     2  C    0.078047
     3  C    0.210744
     4  C    0.178493
     5  C    0.363237
     6  C   -0.721293
     7  C    0.145568
     8  C   -0.017357
     9  C    0.423234
    10  C   -0.331871
    11  C    0.261222
    12  C    0.201268
    13  C   -0.594103
    14  C   -0.727161
    15  H    0.188883
    16  H    0.189637
    17  H    0.197940
    18  N   -0.109852
    19  N   -0.097440
    20  O   -0.256392
    21  O   -0.267597
    22  O   -0.267430
    23  O   -0.088426
    24  C   -0.303028
    25  H    0.197099
    26  H    0.195101
    27  H    0.202010
    28  C   -0.285937
    29  H    0.194229
    30  H    0.194303
    31  H    0.200334
    32  C    0.180668
    33  C   -0.466627
    34  S   -0.103045
    35  C   -0.091979
    36  H    0.141132
    37  C    0.182217
    38  O   -0.121011
    39  C    0.834152
    40  C   -0.294380
    41  C    0.075773
    42  S   -0.306317
    43  H    0.181105
    44  H    0.154378
    45  H    0.169580
    46  C   -0.561355
    47  O   -0.127754
    48  C   -0.397480
    49  H    0.153882
    50  C   -0.299954
    51  H    0.183495
    52  H    0.157640
    53  H    0.177750
    54  H    0.154810
 Sum of Mulliken charges =  -0.00000

 Dipole moment (field-independent basis, Debye):
    X=             -0.9071    Y=              0.2384    Z=             -0.0472  Tot=              0.9391
 Quadrupole moment (field-independent basis, Debye-Ang):
   XX=           -218.1739   YY=           -230.6958   ZZ=           -195.8099
   XY=             -2.1329   XZ=              9.8345   YZ=              6.3232

 Normal termination of Gaussian 16 at Tue Nov 17 19:13:44 2020.
