 Gaussian 16, Revision C.01,
 Gaussian 16:  ES64L-G16RevC.01  3-Jul-2019

 --------------------------------------
 # opt=modredundant wb97xd/6-311+g(d,p)
 --------------------------------------

 ------------
 NDI_-100.pdb
 ------------
 Symbolic Z-matrix:
 Charge =  0 Multiplicity = 1

 SCF Done:  E(RwB97XD) =  -2358.76410544     A.U. after   20 cycles
 SCF Done:  E(RwB97XD) =  -2358.77217485     A.U. after   16 cycles
 SCF Done:  E(RwB97XD) =  -2358.77307860     A.U. after   17 cycles
 SCF Done:  E(RwB97XD) =  -2358.77330375     A.U. after   16 cycles
 SCF Done:  E(RwB97XD) =  -2358.77344426     A.U. after   16 cycles
 SCF Done:  E(RwB97XD) =  -2358.77343213     A.U. after   14 cycles
 SCF Done:  E(RwB97XD) =  -2358.77341343     A.U. after   14 cycles
 SCF Done:  E(RwB97XD) =  -2358.77343547     A.U. after   14 cycles
 SCF Done:  E(RwB97XD) =  -2358.77348243     A.U. after   16 cycles
 SCF Done:  E(RwB97XD) =  -2358.77346215     A.U. after   14 cycles
 SCF Done:  E(RwB97XD) =  -2358.77349399     A.U. after   11 cycles
 SCF Done:  E(RwB97XD) =  -2358.77349558     A.U. after   11 cycles
 SCF Done:  E(RwB97XD) =  -2358.77349659     A.U. after   11 cycles
 SCF Done:  E(RwB97XD) =  -2358.77349679     A.U. after   11 cycles
 SCF Done:  E(RwB97XD) =  -2358.77349682     A.U. after   10 cycles
 SCF Done:  E(RwB97XD) =  -2358.77349688     A.U. after    9 cycles
 SCF Done:  E(RwB97XD) =  -2358.77349691     A.U. after    9 cycles
 SCF Done:  E(RwB97XD) =  -2358.77349690     A.U. after    9 cycles
 SCF Done:  E(RwB97XD) =  -2358.77349688     A.U. after    8 cycles
 SCF Done:  E(RwB97XD) =  -2358.77349687     A.U. after    8 cycles
 Optimization completed.
    -- Stationary point found.

                         Standard orientation:
 ---------------------------------------------------------------------
 Center     Atomic      Atomic             Coordinates (Angstroms)
 Number     Number       Type             X           Y           Z
 ---------------------------------------------------------------------
      1          6           0        3.372073   -2.799566   -0.064475
      2          6           0        2.679652   -1.488693    0.049015
      3          6           0        3.409432   -0.289553   -0.070189
      4          6           0        4.799500   -0.313716   -0.308201
      5          6           0        5.518051   -1.611892   -0.430647
      6          6           0        1.327143   -1.449293    0.259567
      7          6           0        2.733687    0.943025    0.050397
      8          6           0        1.335988    0.968340    0.294131
      9          6           0        0.629046   -0.223117    0.380251
     10          6           0        0.671213    2.292990    0.492183
     11          6           0        2.812728    3.459454    0.014341
     12          6           0        3.479580    2.135306   -0.086563
     13          6           0        4.833970    2.091842   -0.322912
     14          6           0        5.501078    0.861674   -0.432197
     15          1           0        6.567542    0.820810   -0.616550
     16          1           0        5.372147    3.026175   -0.425246
     17          1           0        0.774522   -2.378507    0.331001
     18          7           0        1.446259    3.439429    0.273085
     19          7           0        4.747077   -2.769941   -0.298224
     20          8           0        2.789066   -3.854362    0.038683
     21          8           0        6.709360   -1.665285   -0.633564
     22          8           0        3.422827    4.496848   -0.117516
     23          8           0       -0.480591    2.416628    0.830534
     24          6           0        0.748453    4.716527    0.420594
     25          1           0       -0.150620    4.709771   -0.193879
     26          1           0        0.456563    4.867093    1.460889
     27          1           0        1.424490    5.505569    0.105215
     28          6           0        5.409466   -4.069214   -0.409044
     29          1           0        5.269264   -4.633442    0.513053
     30          1           0        4.973442   -4.635321   -1.232258
     31          1           0        6.465813   -3.893160   -0.588302
     32          6           0       -0.833107   -0.316142    0.584458
     33          6           0       -1.487294   -0.567614    1.751036
     34         16           0       -1.913132   -0.178892   -0.750123
     35          6           0       -2.896309   -0.622709    1.569532
     36          1           0       -0.980961   -0.676642    2.699586
     37          6           0       -3.303174   -0.433362    0.268770
     38          8           0       -3.816476   -0.847904    2.537315
     39          6           0       -4.657569   -0.441816   -0.244648
     40          6           0       -3.356943   -0.928497    3.869694
     41          6           0       -5.057643   -0.263431   -1.550593
     42         16           0       -6.053339   -0.682226    0.768716
     43          1           0       -4.242389   -1.066793    4.487732
     44          1           0       -2.684818   -1.782944    4.007017
     45          1           0       -2.845852   -0.006625    4.168073
     46          6           0       -6.466939   -0.317318   -1.736937
     47          8           0       -4.127776   -0.061305   -2.515924
     48          6           0       -7.121691   -0.537449   -0.563381
     49          1           0       -6.968196   -0.199728   -2.686906
     50          6           0       -4.587643    0.138482   -3.835151
     51          1           0       -8.186791   -0.624026   -0.411306
     52          1           0       -5.227286    1.025483   -3.902053
     53          1           0       -3.699479    0.288437   -4.446653
     54          1           0       -5.134996   -0.737170   -4.201331
 ---------------------------------------------------------------------

 The electronic state is 1-A.
 Alpha  occ. eigenvalues --  -89.04336 -89.04019 -19.28459 -19.28436 -19.25281
 Alpha  occ. eigenvalues --  -19.25222 -19.24939 -19.24902 -14.50826 -14.50486
 Alpha  occ. eigenvalues --  -10.43084 -10.42851 -10.42747 -10.42712 -10.35193
 Alpha  occ. eigenvalues --  -10.34776 -10.34754 -10.34699 -10.34640 -10.34520
 Alpha  occ. eigenvalues --  -10.34175 -10.34163 -10.34118 -10.34110 -10.34099
 Alpha  occ. eigenvalues --  -10.33236 -10.33144 -10.33141 -10.32665 -10.32408
 Alpha  occ. eigenvalues --  -10.32125 -10.31928 -10.31775 -10.31094 -10.29356
 Alpha  occ. eigenvalues --  -10.29090  -8.08348  -8.08042  -6.03207  -6.02885
 Alpha  occ. eigenvalues --   -6.02807  -6.02489  -6.02408  -6.02131  -1.19740
 Alpha  occ. eigenvalues --   -1.19541  -1.18179  -1.18097  -1.17837  -1.17609
 Alpha  occ. eigenvalues --   -1.07002  -1.06624  -1.03568  -1.00152  -0.98590
 Alpha  occ. eigenvalues --   -0.97203  -0.95059  -0.90541  -0.88994  -0.87027
 Alpha  occ. eigenvalues --   -0.85650  -0.85449  -0.84171  -0.82722  -0.82229
 Alpha  occ. eigenvalues --   -0.81323  -0.79329  -0.78152  -0.77089  -0.75839
 Alpha  occ. eigenvalues --   -0.75339  -0.74460  -0.70126  -0.68625  -0.67729
 Alpha  occ. eigenvalues --   -0.66881  -0.65627  -0.64592  -0.64507  -0.63051
 Alpha  occ. eigenvalues --   -0.62887  -0.60946  -0.59968  -0.59370  -0.59107
 Alpha  occ. eigenvalues --   -0.57895  -0.57837  -0.57465  -0.56974  -0.56643
 Alpha  occ. eigenvalues --   -0.56381  -0.56172  -0.55661  -0.55405  -0.54216
 Alpha  occ. eigenvalues --   -0.53999  -0.53764  -0.53461  -0.53092  -0.52471
 Alpha  occ. eigenvalues --   -0.51739  -0.51334  -0.51220  -0.50431  -0.50067
 Alpha  occ. eigenvalues --   -0.49684  -0.49587  -0.49200  -0.48922  -0.48475
 Alpha  occ. eigenvalues --   -0.48413  -0.46971  -0.46689  -0.45875  -0.44993
 Alpha  occ. eigenvalues --   -0.44151  -0.43528  -0.41977  -0.41248  -0.41028
 Alpha  occ. eigenvalues --   -0.40792  -0.40535  -0.39829  -0.38700  -0.37632
 Alpha  occ. eigenvalues --   -0.37571  -0.37132  -0.36964  -0.35970  -0.34981
 Alpha  occ. eigenvalues --   -0.33568  -0.31409  -0.31104  -0.25295
 Alpha virt. eigenvalues --   -0.07311  -0.00045   0.00635   0.02291   0.02586
 Alpha virt. eigenvalues --    0.04997   0.05977   0.06256   0.06581   0.06894
 Alpha virt. eigenvalues --    0.07305   0.07414   0.07572   0.07721   0.08018

 Mulliken charges:
               1
     1  C    0.474699
     2  C    0.084930
     3  C    0.191438
     4  C    0.176210
     5  C    0.378473
     6  C   -0.695163
     7  C    0.133529
     8  C   -0.065512
     9  C    0.314711
    10  C   -0.310493
    11  C    0.286121
    12  C    0.181763
    13  C   -0.574413
    14  C   -0.716298
    15  H    0.188945
    16  H    0.189712
    17  H    0.195911
    18  N   -0.079101
    19  N   -0.096090
    20  O   -0.257066
    21  O   -0.268377
    22  O   -0.270046
    23  O   -0.107576
    24  C   -0.292693
    25  H    0.195787
    26  H    0.198152
    27  H    0.200621
    28  C   -0.285870
    29  H    0.193811
    30  H    0.194640
    31  H    0.200521
    32  C    0.251528
    33  C   -0.398047
    34  S   -0.186240
    35  C   -0.102449
    36  H    0.142469
    37  C    0.185186
    38  O   -0.116238
    39  C    0.843160
    40  C   -0.292492
    41  C    0.069050
    42  S   -0.305313
    43  H    0.181300
    44  H    0.156114
    45  H    0.168286
    46  C   -0.564362
    47  O   -0.127213
    48  C   -0.393477
    49  H    0.153926
    50  C   -0.299999
    51  H    0.183588
    52  H    0.157476
    53  H    0.177551
    54  H    0.154920
 Sum of Mulliken charges =  -0.00000

 Dipole moment (field-independent basis, Debye):
    X=             -1.0058    Y=              0.2100    Z=             -0.0912  Tot=              1.0316
 Quadrupole moment (field-independent basis, Debye-Ang):
   XX=           -217.5323   YY=           -231.6363   ZZ=           -195.5383
   XY=             -4.4503   XZ=             10.0737   YZ=             -3.0521

 Normal termination of Gaussian 16 at Tue Nov 17 23:52:26 2020.
