 Gaussian 16, Revision C.01,
 Gaussian 16:  ES64L-G16RevC.01  3-Jul-2019

 --------------------------------------
 # opt=modredundant wb97xd/6-311+g(d,p)
 --------------------------------------

 ------------
 NDI_-150.pdb
 ------------
 Symbolic Z-matrix:
 Charge =  0 Multiplicity = 1

 SCF Done:  E(RwB97XD) =  -2358.74537642     A.U. after   19 cycles
 SCF Done:  E(RwB97XD) =  -2358.75660550     A.U. after   20 cycles
 SCF Done:  E(RwB97XD) =  -2358.76631744     A.U. after   18 cycles
 SCF Done:  E(RwB97XD) =  -2358.76918119     A.U. after   16 cycles
 SCF Done:  E(RwB97XD) =  -2358.76981252     A.U. after   15 cycles
 SCF Done:  E(RwB97XD) =  -2358.76998325     A.U. after   15 cycles
 SCF Done:  E(RwB97XD) =  -2358.77022404     A.U. after   13 cycles
 SCF Done:  E(RwB97XD) =  -2358.77027771     A.U. after   15 cycles
 SCF Done:  E(RwB97XD) =  -2358.77035554     A.U. after   14 cycles
 SCF Done:  E(RwB97XD) =  -2358.77039443     A.U. after   14 cycles
 SCF Done:  E(RwB97XD) =  -2358.77251670     A.U. after   13 cycles
 SCF Done:  E(RwB97XD) =  -2358.77254749     A.U. after   13 cycles
 SCF Done:  E(RwB97XD) =  -2358.77257845     A.U. after   15 cycles
 SCF Done:  E(RwB97XD) =  -2358.77259675     A.U. after   14 cycles
 SCF Done:  E(RwB97XD) =  -2358.77260946     A.U. after   13 cycles
 SCF Done:  E(RwB97XD) =  -2358.77261140     A.U. after   12 cycles
 SCF Done:  E(RwB97XD) =  -2358.77261172     A.U. after   13 cycles
 SCF Done:  E(RwB97XD) =  -2358.77261209     A.U. after   11 cycles
 SCF Done:  E(RwB97XD) =  -2358.77261216     A.U. after   11 cycles
 SCF Done:  E(RwB97XD) =  -2358.77261220     A.U. after    8 cycles
 Optimization completed.
    -- Stationary point found.

                         Standard orientation:
 ---------------------------------------------------------------------
 Center     Atomic      Atomic             Coordinates (Angstroms)
 Number     Number       Type             X           Y           Z
 ---------------------------------------------------------------------
      1          6           0       -3.534736   -2.669933    0.358197
      2          6           0       -2.765573   -1.433147    0.061972
      3          6           0       -3.404557   -0.176627    0.098305
      4          6           0       -4.767920   -0.069547    0.433469
      5          6           0       -5.561115   -1.290720    0.740868
      6          6           0       -1.426680   -1.514811   -0.196323
      7          6           0       -2.653826    0.977023   -0.206186
      8          6           0       -1.279747    0.869734   -0.546861
      9          6           0       -0.639504   -0.366899   -0.485944
     10          6           0       -0.621014    2.082444   -1.112662
     11          6           0       -2.549882    3.480274   -0.433371
     12          6           0       -3.300141    2.231892   -0.142230
     13          6           0       -4.630572    2.319755    0.201421
     14          6           0       -5.373707    1.164931    0.485522
     15          1           0       -6.422007    1.227067    0.749965
     16          1           0       -5.088413    3.300210    0.249622
     17          1           0       -0.950446   -2.485912   -0.141660
     18          7           0       -1.240810    3.316276   -0.872497
     19          7           0       -4.883369   -2.512965    0.674950
     20          8           0       -3.034027   -3.771691    0.329570
     21          8           0       -6.734014   -1.235656    1.031347
     22          8           0       -3.050099    4.577451   -0.319339
     23          8           0        0.386877    2.042938   -1.776943
     24          6           0       -0.510488    4.504209   -1.311587
     25          1           0        0.536056    4.399645   -1.032668
     26          1           0       -0.573631    4.613308   -2.396021
     27          1           0       -0.956412    5.370132   -0.830537
     28          6           0       -5.624379   -3.740264    0.963424
     29          1           0       -5.584270   -4.405302    0.100675
     30          1           0       -5.175445   -4.250029    1.816114
     31          1           0       -6.651928   -3.467596    1.184211
     32          6           0        0.808282   -0.589257   -0.571305
     33          6           0        1.417789   -1.709118   -1.079071
     34         16           0        1.940092    0.408092    0.267350
     35          6           0        2.809515   -1.729674   -0.836869
     36          1           0        0.884801   -2.470022   -1.632290
     37          6           0        3.262669   -0.653521   -0.099200
     38          8           0        3.683344   -2.678463   -1.246811
     39          6           0        4.618340   -0.389768    0.328799
     40          6           0        3.166510   -3.769006   -1.980445
     41          6           0        5.063562    0.677548    1.080175
     42         16           0        5.958590   -1.431484   -0.063667
     43          1           0        4.016095   -4.409667   -2.209484
     44          1           0        2.436383   -4.333463   -1.389886
     45          1           0        2.703723   -3.433202   -2.914925
     46          6           0        6.462541    0.661475    1.334341
     47          8           0        4.182530    1.612977    1.503156
     48          6           0        7.062933   -0.424086    0.771977
     49          1           0        6.994804    1.410768    1.902290
     50          6           0        4.692022    2.717285    2.221478
     51          1           0        8.109311   -0.686873    0.807739
     52          1           0        5.414307    3.280450    1.620750
     53          1           0        3.837105    3.352355    2.446692
     54          1           0        5.161491    2.397605    3.158122
 ---------------------------------------------------------------------

 The electronic state is 1-A.
 Alpha  occ. eigenvalues --  -89.04793 -89.04649 -19.29117 -19.28987 -19.25048
 Alpha  occ. eigenvalues --  -19.25040 -19.24536 -19.24515 -14.50610 -14.50060
 Alpha  occ. eigenvalues --  -10.42830 -10.42656 -10.42364 -10.42252 -10.35427
 Alpha  occ. eigenvalues --  -10.35392 -10.35198 -10.34650 -10.34522 -10.34281
 Alpha  occ. eigenvalues --  -10.33992 -10.33968 -10.33771 -10.33749 -10.33607
 Alpha  occ. eigenvalues --  -10.33155 -10.32986 -10.32952 -10.32740 -10.32685
 Alpha  occ. eigenvalues --  -10.32398 -10.32246 -10.31970 -10.31795 -10.30183
 Alpha  occ. eigenvalues --  -10.29679  -8.08819  -8.08671  -6.03673  -6.03514
 Alpha  occ. eigenvalues --   -6.03272  -6.03118  -6.02882  -6.02760  -1.19511
 Alpha  occ. eigenvalues --   -1.19145  -1.18834  -1.18703  -1.17609  -1.17184
 Alpha  occ. eigenvalues --   -1.06754  -1.06283  -1.03193  -1.00670  -0.99016
 Alpha  occ. eigenvalues --   -0.97149  -0.94684  -0.90603  -0.88653  -0.87393
 Alpha  occ. eigenvalues --   -0.86114  -0.85228  -0.84819  -0.82855  -0.82413
 Alpha  occ. eigenvalues --   -0.81136  -0.79849  -0.78392  -0.76823  -0.75519
 Alpha  occ. eigenvalues --   -0.75098  -0.74370  -0.70144  -0.69006  -0.67958
 Alpha  occ. eigenvalues --   -0.66650  -0.65879  -0.65118  -0.64178  -0.63680
 Alpha  occ. eigenvalues --   -0.62880  -0.60670  -0.59702  -0.59086  -0.58907
 Alpha  occ. eigenvalues --   -0.58260  -0.57681  -0.57482  -0.57299  -0.57117
 Alpha  occ. eigenvalues --   -0.56626  -0.55919  -0.55422  -0.55304  -0.54260
 Alpha  occ. eigenvalues --   -0.53857  -0.53817  -0.53516  -0.53112  -0.52452
 Alpha  occ. eigenvalues --   -0.51580  -0.51170  -0.50803  -0.50446  -0.50318
 Alpha  occ. eigenvalues --   -0.50119  -0.49668  -0.49438  -0.48940  -0.48421
 Alpha  occ. eigenvalues --   -0.48090  -0.47621  -0.46654  -0.45853  -0.45475
 Alpha  occ. eigenvalues --   -0.44533  -0.44139  -0.42388  -0.41771  -0.41423
 Alpha  occ. eigenvalues --   -0.41283  -0.40112  -0.39616  -0.38492  -0.37650
 Alpha  occ. eigenvalues --   -0.37334  -0.37073  -0.36650  -0.36344  -0.34776
 Alpha  occ. eigenvalues --   -0.33129  -0.31877  -0.31475  -0.25636
 Alpha virt. eigenvalues --   -0.07126  -0.00658   0.00529   0.02354   0.03415
 Alpha virt. eigenvalues --    0.05149   0.05754   0.05991   0.06663   0.06798
 Alpha virt. eigenvalues --    0.07092   0.07519   0.07702   0.07728   0.07956

 Mulliken charges:
               1
     1  C    0.463467
     2  C   -0.095737
     3  C    0.085254
     4  C    0.222785
     5  C    0.360759
     6  C   -0.262967
     7  C    0.066989
     8  C    0.204567
     9  C    0.297545
    10  C   -0.574172
    11  C    0.372757
    12  C    0.042559
    13  C   -0.535196
    14  C   -0.656105
    15  H    0.187520
    16  H    0.188074
    17  H    0.187574
    18  N    0.077470
    19  N   -0.096103
    20  O   -0.267224
    21  O   -0.267408
    22  O   -0.278764
    23  O   -0.193755
    24  C   -0.278940
    25  H    0.194065
    26  H    0.201629
    27  H    0.197993
    28  C   -0.279324
    29  H    0.192178
    30  H    0.194155
    31  H    0.200637
    32  C    0.273157
    33  C   -0.727033
    34  S   -0.713235
    35  C   -0.036207
    36  H    0.162851
    37  C    0.639728
    38  O   -0.116048
    39  C    0.966361
    40  C   -0.294641
    41  C    0.023607
    42  S   -0.270633
    43  H    0.184095
    44  H    0.164720
    45  H    0.162016
    46  C   -0.638800
    47  O   -0.115450
    48  C   -0.346727
    49  H    0.155938
    50  C   -0.309643
    51  H    0.186844
    52  H    0.160338
    53  H    0.180102
    54  H    0.156380
 Sum of Mulliken charges =  -0.00000

 Dipole moment (field-independent basis, Debye):
    X=              2.6973    Y=             -0.2697    Z=              0.6085  Tot=              2.7782
 Quadrupole moment (field-independent basis, Debye-Ang):
   XX=           -212.0647   YY=           -214.1069   ZZ=           -216.4593
   XY=              9.6044   XZ=             10.2003   YZ=             12.6786

 Normal termination of Gaussian 16 at Wed Nov 18 10:08:44 2020.
