 Gaussian 16, Revision C.01,
 Gaussian 16:  ES64L-G16RevC.01  3-Jul-2019

 --------------------------------------
 # opt=modredundant wb97xd/6-311+g(d,p)
 --------------------------------------

 -----------
 NDI_-60.pdb
 -----------
 Symbolic Z-matrix:
 Charge =  0 Multiplicity = 1

 SCF Done:  E(RwB97XD) =  -2358.76807822     A.U. after   20 cycles
 SCF Done:  E(RwB97XD) =  -2358.77291884     A.U. after   17 cycles
 SCF Done:  E(RwB97XD) =  -2358.77358982     A.U. after   15 cycles
 SCF Done:  E(RwB97XD) =  -2358.77387911     A.U. after   17 cycles
 SCF Done:  E(RwB97XD) =  -2358.77400405     A.U. after   15 cycles
 SCF Done:  E(RwB97XD) =  -2358.77402804     A.U. after   15 cycles
 SCF Done:  E(RwB97XD) =  -2358.77405155     A.U. after   15 cycles
 SCF Done:  E(RwB97XD) =  -2358.77407878     A.U. after   17 cycles
 SCF Done:  E(RwB97XD) =  -2358.77409066     A.U. after   15 cycles
 SCF Done:  E(RwB97XD) =  -2358.77410024     A.U. after   14 cycles
 SCF Done:  E(RwB97XD) =  -2358.77412604     A.U. after   11 cycles
 SCF Done:  E(RwB97XD) =  -2358.77412613     A.U. after   12 cycles
 SCF Done:  E(RwB97XD) =  -2358.77412619     A.U. after   12 cycles
 SCF Done:  E(RwB97XD) =  -2358.77412625     A.U. after   13 cycles
 SCF Done:  E(RwB97XD) =  -2358.77412628     A.U. after   13 cycles
 SCF Done:  E(RwB97XD) =  -2358.77412636     A.U. after   13 cycles
 SCF Done:  E(RwB97XD) =  -2358.77412639     A.U. after   13 cycles
 SCF Done:  E(RwB97XD) =  -2358.77412642     A.U. after   13 cycles
 SCF Done:  E(RwB97XD) =  -2358.77412645     A.U. after   11 cycles
 SCF Done:  E(RwB97XD) =  -2358.77412646     A.U. after    9 cycles
 Optimization completed.
    -- Stationary point found.

                         Standard orientation:
 ---------------------------------------------------------------------
 Center     Atomic      Atomic             Coordinates (Angstroms)
 Number     Number       Type             X           Y           Z
 ---------------------------------------------------------------------
      1          6           0        2.926064   -2.896235    0.571817
      2          6           0        2.438178   -1.513323    0.324904
      3          6           0        3.353542   -0.476113    0.054233
      4          6           0        4.739365   -0.731266    0.022152
      5          6           0        5.256374   -2.105660    0.268032
      6          6           0        1.098832   -1.246357    0.388595
      7          6           0        2.864226    0.824851   -0.188299
      8          6           0        1.467059    1.081812   -0.160292
      9          6           0        0.584172    0.058570    0.172543
     10          6           0        0.994982    2.437285   -0.578484
     11          6           0        3.343586    3.241636   -0.700814
     12          6           0        3.799543    1.851781   -0.447760
     13          6           0        5.149860    1.585946   -0.467088
     14          6           0        5.626355    0.287722   -0.234356
     15          1           0        6.687230    0.070982   -0.252138
     16          1           0        5.834342    2.401750   -0.664760
     17          1           0        0.416404   -2.051057    0.635767
     18          7           0        1.966777    3.436453   -0.730697
     19          7           0        4.305261   -3.097826    0.521307
     20          8           0        2.178855   -3.818011    0.806872
     21          8           0        6.439858   -2.355385    0.248593
     22          8           0        4.121270    4.151859   -0.883080
     23          8           0       -0.160489    2.708383   -0.801685
     24          6           0        1.464495    4.768047   -1.067392
     25          1           0        1.039457    4.767616   -2.072168
     26          1           0        0.683788    5.049009   -0.362098
     27          1           0        2.297476    5.462751   -1.015489
     28          6           0        4.765582   -4.464408    0.764993
     29          1           0        4.464319   -4.782772    1.763249
     30          1           0        4.316457   -5.138256    0.035475
     31          1           0        5.847647   -4.475316    0.675866
     32          6           0       -0.864877    0.234314    0.357208
     33          6           0       -1.498127    1.037197    1.259467
     34         16           0       -1.981910   -0.739837   -0.527417
     35          6           0       -2.905337    0.882352    1.221258
     36          1           0       -0.971054    1.718467    1.911893
     37          6           0       -3.344554   -0.043176    0.298214
     38          8           0       -3.801844    1.538945    1.994556
     39          6           0       -4.711851   -0.406415   -0.005715
     40          6           0       -3.327591    2.632859    2.752251
     41          6           0       -5.142082   -1.359583   -0.903410
     42         16           0       -6.086213    0.356465    0.744649
     43          1           0       -4.202897    3.079930    3.220303
     44          1           0       -2.632433    2.303280    3.532487
     45          1           0       -2.837408    3.372947    2.110582
     46          6           0       -6.556962   -1.475857   -0.989820
     47          8           0       -4.233334   -2.078572   -1.603777
     48          6           0       -7.184973   -0.605007   -0.152013
     49          1           0       -7.080510   -2.166467   -1.635102
     50          6           0       -4.720018   -3.043225   -2.512978
     51          1           0       -8.247854   -0.481067   -0.010338
     52          1           0       -5.329362   -2.577736   -3.295314
     53          1           0       -3.842951   -3.502697   -2.965286
     54          1           0       -5.306519   -3.812023   -1.998190
 ---------------------------------------------------------------------

 The electronic state is 1-A.
 Alpha  occ. eigenvalues --  -89.04727 -89.04315 -19.28749 -19.28650 -19.25146
 Alpha  occ. eigenvalues --  -19.25086 -19.24797 -19.24733 -14.50693 -14.50380
 Alpha  occ. eigenvalues --  -10.42940 -10.42711 -10.42680 -10.42550 -10.35233
 Alpha  occ. eigenvalues --  -10.35060 -10.35011 -10.34555 -10.34441 -10.34328
 Alpha  occ. eigenvalues --  -10.34260 -10.34259 -10.33988 -10.33932 -10.33869
 Alpha  occ. eigenvalues --  -10.32986 -10.32976 -10.32921 -10.32791 -10.32466
 Alpha  occ. eigenvalues --  -10.32303 -10.32163 -10.32065 -10.31430 -10.29634
 Alpha  occ. eigenvalues --  -10.29363  -8.08743  -8.08337  -6.03596  -6.03198
 Alpha  occ. eigenvalues --   -6.03180  -6.02812  -6.02784  -6.02426  -1.19606
 Alpha  occ. eigenvalues --   -1.19413  -1.18455  -1.18352  -1.17700  -1.17461
 Alpha  occ. eigenvalues --   -1.06864  -1.06495  -1.03377  -1.00419  -0.98776
 Alpha  occ. eigenvalues --   -0.97194  -0.94881  -0.90540  -0.88833  -0.87213
 Alpha  occ. eigenvalues --   -0.85829  -0.85384  -0.84492  -0.82734  -0.82221
 Alpha  occ. eigenvalues --   -0.81503  -0.79432  -0.78261  -0.77003  -0.75694
 Alpha  occ. eigenvalues --   -0.75278  -0.74350  -0.70201  -0.68744  -0.67840
 Alpha  occ. eigenvalues --   -0.66754  -0.65625  -0.64895  -0.64640  -0.63311
 Alpha  occ. eigenvalues --   -0.62653  -0.60833  -0.59858  -0.59299  -0.58973
 Alpha  occ. eigenvalues --   -0.58124  -0.57774  -0.57402  -0.57170  -0.56820
 Alpha  occ. eigenvalues --   -0.56425  -0.56076  -0.55521  -0.55337  -0.54267
 Alpha  occ. eigenvalues --   -0.54067  -0.53542  -0.53444  -0.53213  -0.52399
 Alpha  occ. eigenvalues --   -0.51642  -0.51203  -0.51133  -0.50357  -0.50352
 Alpha  occ. eigenvalues --   -0.49839  -0.49601  -0.49314  -0.48974  -0.48420
 Alpha  occ. eigenvalues --   -0.48265  -0.47328  -0.46885  -0.45826  -0.45281
 Alpha  occ. eigenvalues --   -0.44190  -0.43773  -0.42277  -0.41608  -0.41199
 Alpha  occ. eigenvalues --   -0.40846  -0.40389  -0.39750  -0.38650  -0.37653
 Alpha  occ. eigenvalues --   -0.37449  -0.37064  -0.37023  -0.36203  -0.34752
 Alpha  occ. eigenvalues --   -0.33326  -0.31597  -0.31365  -0.25472
 Alpha virt. eigenvalues --   -0.07257  -0.00223   0.00486   0.02227   0.03051
 Alpha virt. eigenvalues --    0.04994   0.05878   0.06048   0.06786   0.06882
 Alpha virt. eigenvalues --    0.07301   0.07509   0.07623   0.07742   0.07796

 Mulliken charges:
               1
     1  C    0.468529
     2  C   -0.098840
     3  C    0.071686
     4  C    0.184147
     5  C    0.353026
     6  C   -0.827376
     7  C    0.133084
     8  C    0.207872
     9  C    0.562886
    10  C   -0.410020
    11  C    0.393522
    12  C    0.110128
    13  C   -0.572348
    14  C   -0.724985
    15  H    0.188298
    16  H    0.189254
    17  H    0.208909
    18  N   -0.055869
    19  N   -0.095820
    20  O   -0.260120
    21  O   -0.267592
    22  O   -0.274165
    23  O   -0.124016
    24  C   -0.264764
    25  H    0.201841
    26  H    0.188408
    27  H    0.201024
    28  C   -0.282555
    29  H    0.194969
    30  H    0.192966
    31  H    0.200756
    32  C    0.209759
    33  C   -0.295317
    34  S   -0.480614
    35  C   -0.335264
    36  H    0.147124
    37  C    0.465595
    38  O   -0.103900
    39  C    0.899484
    40  C   -0.306573
    41  C    0.030570
    42  S   -0.279825
    43  H    0.181598
    44  H    0.155072
    45  H    0.174170
    46  C   -0.513690
    47  O   -0.115331
    48  C   -0.355592
    49  H    0.155178
    50  C   -0.305510
    51  H    0.185328
    52  H    0.158647
    53  H    0.179799
    54  H    0.156458
 Sum of Mulliken charges =  -0.00000

 Dipole moment (field-independent basis, Debye):
    X=             -1.7950    Y=              0.0072    Z=              0.1102  Tot=              1.7984
 Quadrupole moment (field-independent basis, Debye-Ang):
   XX=           -216.9607   YY=           -215.7319   ZZ=           -210.5324
   XY=              2.3777   XZ=              6.3813   YZ=             16.2972

 Normal termination of Gaussian 16 at Wed Nov 18 02:10:18 2020.
