 Gaussian 16, Revision C.01,
 Gaussian 16:  ES64L-G16RevC.01  3-Jul-2019

 --------------------------------------
 # opt=modredundant wb97xd/6-311+g(d,p)
 --------------------------------------

 -----------
 NDI_-40.pdb
 -----------
 Symbolic Z-matrix:
 Charge =  0 Multiplicity = 1

 SCF Done:  E(RwB97XD) =  -2358.76992070     A.U. after   19 cycles
 SCF Done:  E(RwB97XD) =  -2358.77328460     A.U. after   16 cycles
 SCF Done:  E(RwB97XD) =  -2358.77295115     A.U. after   16 cycles
 SCF Done:  E(RwB97XD) =  -2358.77377657     A.U. after   14 cycles
 SCF Done:  E(RwB97XD) =  -2358.77383299     A.U. after   15 cycles
 SCF Done:  E(RwB97XD) =  -2358.77395497     A.U. after   15 cycles
 SCF Done:  E(RwB97XD) =  -2358.77400349     A.U. after   15 cycles
 SCF Done:  E(RwB97XD) =  -2358.77404370     A.U. after   14 cycles
 SCF Done:  E(RwB97XD) =  -2358.77405709     A.U. after   14 cycles
 SCF Done:  E(RwB97XD) =  -2358.77406731     A.U. after   12 cycles
 SCF Done:  E(RwB97XD) =  -2358.77410162     A.U. after   14 cycles
 SCF Done:  E(RwB97XD) =  -2358.77410415     A.U. after   13 cycles
 SCF Done:  E(RwB97XD) =  -2358.77410497     A.U. after   12 cycles
 SCF Done:  E(RwB97XD) =  -2358.77410518     A.U. after   10 cycles
 SCF Done:  E(RwB97XD) =  -2358.77410539     A.U. after   11 cycles
 SCF Done:  E(RwB97XD) =  -2358.77410543     A.U. after   11 cycles
 SCF Done:  E(RwB97XD) =  -2358.77410549     A.U. after    9 cycles
 SCF Done:  E(RwB97XD) =  -2358.77410554     A.U. after   11 cycles
 SCF Done:  E(RwB97XD) =  -2358.77410559     A.U. after   11 cycles
 SCF Done:  E(RwB97XD) =  -2358.77410560     A.U. after   11 cycles
 Optimization completed.
    -- Stationary point found.

                         Standard orientation:
 ---------------------------------------------------------------------
 Center     Atomic      Atomic             Coordinates (Angstroms)
 Number     Number       Type             X           Y           Z
 ---------------------------------------------------------------------
      1          6           0        2.751126   -2.965105    0.424231
      2          6           0        2.345365   -1.548561    0.223224
      3          6           0        3.322562   -0.545310    0.061014
      4          6           0        4.693023   -0.867114    0.099523
      5          6           0        5.129015   -2.275883    0.303606
      6          6           0        1.021324   -1.219254    0.235171
      7          6           0        2.904727    0.786839   -0.143800
      8          6           0        1.519605    1.111991   -0.185859
      9          6           0        0.567874    0.117770    0.056655
     10          6           0        1.153138    2.495094   -0.615360
     11          6           0        3.534112    3.196259   -0.502818
     12          6           0        3.903576    1.775849   -0.291995
     13          6           0        5.239759    1.445699   -0.240218
     14          6           0        5.642222    0.117673   -0.047936
     15          1           0        6.690889   -0.149809   -0.012077
     16          1           0        5.970815    2.237077   -0.351363
     17          1           0        0.299705   -2.006681    0.418018
     18          7           0        2.174989    3.454916   -0.640871
     19          7           0        4.119322   -3.231597    0.449114
     20          8           0        1.948159   -3.859719    0.561369
     21          8           0        6.298388   -2.583429    0.340831
     22          8           0        4.362156    4.077721   -0.570922
     23          8           0        0.041377    2.826944   -0.955406
     24          6           0        1.763219    4.817242   -0.976295
     25          1           0        1.427940    4.865474   -2.013307
     26          1           0        0.937379    5.115725   -0.332050
     27          1           0        2.618856    5.469726   -0.829790
     28          6           0        4.500860   -4.629191    0.647912
     29          1           0        4.099516   -4.988953    1.595424
     30          1           0        4.092123   -5.240460   -0.156877
     31          1           0        5.585355   -4.683301    0.650917
     32          6           0       -0.870931    0.337541    0.224451
     33          6           0       -1.511461    1.345516    0.890078
     34         16           0       -2.001463   -0.818182   -0.398938
     35          6           0       -2.914019    1.190265    0.892335
     36          1           0       -0.991128    2.168128    1.356290
     37          6           0       -3.357356    0.064140    0.225249
     38          8           0       -3.809213    2.021227    1.474323
     39          6           0       -4.725130   -0.358725    0.025151
     40          6           0       -3.328174    3.263597    1.946764
     41          6           0       -5.159550   -1.500093   -0.615698
     42         16           0       -6.095808    0.560935    0.582136
     43          1           0       -4.202531    3.820777    2.278414
     44          1           0       -2.646083    3.127423    2.793366
     45          1           0       -2.820341    3.816777    1.149514
     46          6           0       -6.574459   -1.634395   -0.659956
     47          8           0       -4.254921   -2.363314   -1.130964
     48          6           0       -7.197482   -0.588363   -0.049277
     49          1           0       -7.101650   -2.459140   -1.117306
     50          6           0       -4.743431   -3.527089   -1.765839
     51          1           0       -8.259688   -0.434541    0.066131
     52          1           0       -5.362114   -3.273621   -2.633437
     53          1           0       -3.867097   -4.081049   -2.097315
     54          1           0       -5.320430   -4.144633   -1.069128
 ---------------------------------------------------------------------

 The electronic state is 1-A.
 Alpha  occ. eigenvalues --  -89.04980 -89.04633 -19.29071 -19.28870 -19.25019
 Alpha  occ. eigenvalues --  -19.24976 -19.24597 -19.24555 -14.50573 -14.50227
 Alpha  occ. eigenvalues --  -10.42802 -10.42591 -10.42571 -10.42330 -10.35412
 Alpha  occ. eigenvalues --  -10.35333 -10.35324 -10.34535 -10.34387 -10.34363
 Alpha  occ. eigenvalues --  -10.34161 -10.33973 -10.33778 -10.33739 -10.33591
 Alpha  occ. eigenvalues --  -10.33021 -10.32926 -10.32820 -10.32712 -10.32646
 Alpha  occ. eigenvalues --  -10.32378 -10.32212 -10.32116 -10.31783 -10.29909
 Alpha  occ. eigenvalues --  -10.29658  -8.09006  -8.08654  -6.03854  -6.03497
 Alpha  occ. eigenvalues --   -6.03458  -6.03101  -6.03079  -6.02743  -1.19486
 Alpha  occ. eigenvalues --   -1.19260  -1.18783  -1.18599  -1.17577  -1.17280
 Alpha  occ. eigenvalues --   -1.06738  -1.06338  -1.03164  -1.00658  -0.98990
 Alpha  occ. eigenvalues --   -0.97124  -0.94682  -0.90543  -0.88660  -0.87410
 Alpha  occ. eigenvalues --   -0.86027  -0.85265  -0.84793  -0.82802  -0.82270
 Alpha  occ. eigenvalues --   -0.81515  -0.79596  -0.78344  -0.76894  -0.75531
 Alpha  occ. eigenvalues --   -0.75197  -0.74249  -0.70265  -0.68894  -0.67914
 Alpha  occ. eigenvalues --   -0.66619  -0.65754  -0.65130  -0.64595  -0.63610
 Alpha  occ. eigenvalues --   -0.62496  -0.60713  -0.59754  -0.59229  -0.58827
 Alpha  occ. eigenvalues --   -0.58268  -0.57700  -0.57393  -0.57320  -0.57013
 Alpha  occ. eigenvalues --   -0.56585  -0.55867  -0.55463  -0.55200  -0.54389
 Alpha  occ. eigenvalues --   -0.53982  -0.53522  -0.53404  -0.53232  -0.52211
 Alpha  occ. eigenvalues --   -0.51613  -0.51121  -0.50998  -0.50562  -0.50320
 Alpha  occ. eigenvalues --   -0.50080  -0.49530  -0.49439  -0.48897  -0.48392
 Alpha  occ. eigenvalues --   -0.48087  -0.47642  -0.46946  -0.45758  -0.45555
 Alpha  occ. eigenvalues --   -0.44332  -0.44051  -0.42443  -0.41840  -0.41339
 Alpha  occ. eigenvalues --   -0.41114  -0.40205  -0.39651  -0.38585  -0.37695
 Alpha  occ. eigenvalues --   -0.37337  -0.37044  -0.36914  -0.36294  -0.34629
 Alpha  occ. eigenvalues --   -0.33163  -0.31750  -0.31572  -0.25610
 Alpha virt. eigenvalues --   -0.07210  -0.00652   0.00479   0.02364   0.03403
 Alpha virt. eigenvalues --    0.05125   0.05758   0.06029   0.06774   0.06973
 Alpha virt. eigenvalues --    0.07256   0.07496   0.07720   0.07817   0.07959

 Mulliken charges:
               1
     1  C    0.426635
     2  C   -0.145082
     3  C    0.101184
     4  C    0.189396
     5  C    0.355948
     6  C   -0.493815
     7  C    0.134739
     8  C    0.371330
     9  C    0.402541
    10  C   -0.506247
    11  C    0.295190
    12  C    0.101901
    13  C   -0.525030
    14  C   -0.675590
    15  H    0.187492
    16  H    0.188126
    17  H    0.205132
    18  N   -0.007643
    19  N   -0.091780
    20  O   -0.265511
    21  O   -0.266455
    22  O   -0.275186
    23  O   -0.182609
    24  C   -0.262286
    25  H    0.200352
    26  H    0.184205
    27  H    0.200677
    28  C   -0.283627
    29  H    0.193551
    30  H    0.193320
    31  H    0.200084
    32  C    0.177402
    33  C   -0.480419
    34  S   -0.643045
    35  C   -0.135633
    36  H    0.152816
    37  C    0.664408
    38  O   -0.109823
    39  C    0.861129
    40  C   -0.312831
    41  C   -0.000905
    42  S   -0.287660
    43  H    0.181802
    44  H    0.155744
    45  H    0.176986
    46  C   -0.633445
    47  O   -0.111377
    48  C   -0.340858
    49  H    0.156537
    50  C   -0.306936
    51  H    0.186649
    52  H    0.157894
    53  H    0.182305
    54  H    0.158320
 Sum of Mulliken charges =  -0.00000

 Dipole moment (field-independent basis, Debye):
    X=             -2.6910    Y=             -0.2258    Z=              0.2138  Tot=              2.7089
 Quadrupole moment (field-independent basis, Debye-Ang):
   XX=           -215.3135   YY=           -209.6121   ZZ=           -216.9857
   XY=              3.8074   XZ=              3.6436   YZ=             13.5122

 Normal termination of Gaussian 16 at Tue Nov 17 21:58:16 2020.
