 Gaussian 16, Revision C.01,
 Gaussian 16:  ES64L-G16RevC.01  3-Jul-2019

 --------------------------------------
 # opt=modredundant wb97xd/6-311+g(d,p)
 --------------------------------------

 -----------
 NDI_140.pdb
 -----------
 Symbolic Z-matrix:
 Charge =  0 Multiplicity = 1

 SCF Done:  E(RwB97XD) =  -2358.75530836     A.U. after   20 cycles
 SCF Done:  E(RwB97XD) =  -2358.75778195     A.U. after   20 cycles
 SCF Done:  E(RwB97XD) =  -2358.76546523     A.U. after   16 cycles
 SCF Done:  E(RwB97XD) =  -2358.77138657     A.U. after   16 cycles
 SCF Done:  E(RwB97XD) =  -2358.77277238     A.U. after   16 cycles
 SCF Done:  E(RwB97XD) =  -2358.77296493     A.U. after   16 cycles
 SCF Done:  E(RwB97XD) =  -2358.77315501     A.U. after   14 cycles
 SCF Done:  E(RwB97XD) =  -2358.77322482     A.U. after   15 cycles
 SCF Done:  E(RwB97XD) =  -2358.77328132     A.U. after   14 cycles
 SCF Done:  E(RwB97XD) =  -2358.77330113     A.U. after   13 cycles
 SCF Done:  E(RwB97XD) =  -2358.77342603     A.U. after   13 cycles
 SCF Done:  E(RwB97XD) =  -2358.77342930     A.U. after   13 cycles
 SCF Done:  E(RwB97XD) =  -2358.77343078     A.U. after   11 cycles
 SCF Done:  E(RwB97XD) =  -2358.77343113     A.U. after   10 cycles
 SCF Done:  E(RwB97XD) =  -2358.77343129     A.U. after   10 cycles
 SCF Done:  E(RwB97XD) =  -2358.77343146     A.U. after   10 cycles
 SCF Done:  E(RwB97XD) =  -2358.77343163     A.U. after   11 cycles
 SCF Done:  E(RwB97XD) =  -2358.77343184     A.U. after   10 cycles
 SCF Done:  E(RwB97XD) =  -2358.77343198     A.U. after   10 cycles
 SCF Done:  E(RwB97XD) =  -2358.77343204     A.U. after   10 cycles
 Optimization completed.
    -- Stationary point found.

                         Standard orientation:
 ---------------------------------------------------------------------
 Center     Atomic      Atomic             Coordinates (Angstroms)
 Number     Number       Type             X           Y           Z
 ---------------------------------------------------------------------
      1          6           0        3.527966   -2.674780    0.422538
      2          6           0        2.761510   -1.440779    0.107943
      3          6           0        3.408238   -0.187721    0.105114
      4          6           0        4.777462   -0.081390    0.418379
      5          6           0        5.567352   -1.299543    0.746091
      6          6           0        1.418555   -1.519994   -0.135087
      7          6           0        2.662671    0.964571   -0.217754
      8          6           0        1.283973    0.858555   -0.537071
      9          6           0        0.640475   -0.371891   -0.440409
     10          6           0        0.614836    2.064015   -1.108297
     11          6           0        2.570356    3.461942   -0.506517
     12          6           0        3.317713    2.216195   -0.195081
     13          6           0        4.653354    2.302948    0.126429
     14          6           0        5.391923    1.149501    0.429632
     15          1           0        6.444390    1.210514    0.677425
     16          1           0        5.119364    3.280593    0.142719
     17          1           0        0.931501   -2.484886   -0.061686
     18          7           0        1.250365    3.297664   -0.912108
     19          7           0        4.881017   -2.518152    0.721316
     20          8           0        3.021411   -3.773999    0.423856
     21          8           0        6.744553   -1.244367    1.018652
     22          8           0        3.081502    4.557442   -0.433351
     23          8           0       -0.413527    2.017447   -1.739186
     24          6           0        0.517921    4.481895   -1.358012
     25          1           0        0.560956    4.571799   -2.445206
     26          1           0       -0.523426    4.387639   -1.057140
     27          1           0        0.977452    5.353804   -0.901184
     28          6           0        5.617915   -3.742722    1.031351
     29          1           0        5.164856   -4.236835    1.890892
     30          1           0        5.578542   -4.422011    0.179615
     31          1           0        6.645766   -3.469485    1.249979
     32          6           0       -0.809568   -0.582106   -0.535329
     33          6           0       -1.434773   -1.615590   -1.180082
     34         16           0       -1.923430    0.344842    0.400018
     35          6           0       -2.832526   -1.624575   -0.957451
     36          1           0       -0.908948   -2.318544   -1.811398
     37          6           0       -3.269342   -0.628339   -0.108140
     38          8           0       -3.723517   -2.497251   -1.483282
     39          6           0       -4.623773   -0.381965    0.336021
     40          6           0       -3.224226   -3.506050   -2.336128
     41          6           0       -5.053027    0.606219    1.196178
     42         16           0       -5.982235   -1.343516   -0.178387
     43          1           0       -4.086107   -4.093684   -2.646964
     44          1           0       -2.742481   -3.073918   -3.220073
     45          1           0       -2.514869   -4.154551   -1.810070
     46          6           0       -6.454579    0.594196    1.437117
     47          8           0       -4.155641    1.470214    1.725594
     48          6           0       -7.073188   -0.409111    0.754732
     49          1           0       -6.975955    1.288664    2.079957
     50          6           0       -4.648067    2.497631    2.559987
     51          1           0       -8.125389   -0.650085    0.753071
     52          1           0       -5.131270    2.085417    3.452522
     53          1           0       -3.782302    3.085651    2.859477
     54          1           0       -5.354275    3.139552    2.022320
 ---------------------------------------------------------------------

 The electronic state is 1-A.
 Alpha  occ. eigenvalues --  -89.04706 -89.04511 -19.28978 -19.28882 -19.25097
 Alpha  occ. eigenvalues --  -19.25077 -19.24619 -19.24603 -14.50655 -14.50136
 Alpha  occ. eigenvalues --  -10.42885 -10.42698 -10.42441 -10.42343 -10.35287
 Alpha  occ. eigenvalues --  -10.35250 -10.35147 -10.34551 -10.34442 -10.34366
 Alpha  occ. eigenvalues --  -10.34135 -10.34095 -10.33861 -10.33835 -10.33722
 Alpha  occ. eigenvalues --  -10.33049 -10.33006 -10.32853 -10.32793 -10.32758
 Alpha  occ. eigenvalues --  -10.32279 -10.32262 -10.32000 -10.31638 -10.30020
 Alpha  occ. eigenvalues --  -10.29551  -8.08731  -8.08533  -6.03587  -6.03376
 Alpha  occ. eigenvalues --   -6.03187  -6.02979  -6.02792  -6.02622  -1.19558
 Alpha  occ. eigenvalues --   -1.19218  -1.18692  -1.18589  -1.17657  -1.17265
 Alpha  occ. eigenvalues --   -1.06805  -1.06353  -1.03278  -1.00565  -0.98918
 Alpha  occ. eigenvalues --   -0.97179  -0.94768  -0.90589  -0.88727  -0.87320
 Alpha  occ. eigenvalues --   -0.86016  -0.85277  -0.84688  -0.82766  -0.82436
 Alpha  occ. eigenvalues --   -0.81173  -0.79746  -0.78343  -0.76877  -0.75583
 Alpha  occ. eigenvalues --   -0.75139  -0.74394  -0.70127  -0.68928  -0.67913
 Alpha  occ. eigenvalues --   -0.66697  -0.65849  -0.64992  -0.64229  -0.63557
 Alpha  occ. eigenvalues --   -0.62892  -0.60730  -0.59756  -0.59137  -0.58930
 Alpha  occ. eigenvalues --   -0.58219  -0.57717  -0.57374  -0.57328  -0.57017
 Alpha  occ. eigenvalues --   -0.56542  -0.56003  -0.55453  -0.55347  -0.54237
 Alpha  occ. eigenvalues --   -0.53910  -0.53822  -0.53431  -0.53161  -0.52488
 Alpha  occ. eigenvalues --   -0.51608  -0.51182  -0.50862  -0.50407  -0.50217
 Alpha  occ. eigenvalues --   -0.50118  -0.49618  -0.49443  -0.48937  -0.48424
 Alpha  occ. eigenvalues --   -0.48143  -0.47507  -0.46651  -0.45850  -0.45428
 Alpha  occ. eigenvalues --   -0.44443  -0.44009  -0.42308  -0.41664  -0.41313
 Alpha  occ. eigenvalues --   -0.41234  -0.40208  -0.39667  -0.38542  -0.37605
 Alpha  occ. eigenvalues --   -0.37378  -0.37030  -0.36714  -0.36305  -0.34865
 Alpha  occ. eigenvalues --   -0.33189  -0.31799  -0.31418  -0.25575
 Alpha virt. eigenvalues --   -0.07154  -0.00438   0.00487   0.02301   0.03298
 Alpha virt. eigenvalues --    0.05141   0.05784   0.06050   0.06646   0.06791
 Alpha virt. eigenvalues --    0.07110   0.07535   0.07640   0.07742   0.07890

 Mulliken charges:
               1
     1  C    0.471472
     2  C   -0.115683
     3  C    0.084054
     4  C    0.201544
     5  C    0.367194
     6  C   -0.404783
     7  C    0.079182
     8  C    0.137013
     9  C    0.320534
    10  C   -0.507136
    11  C    0.352311
    12  C    0.051280
    13  C   -0.511820
    14  C   -0.663091
    15  H    0.187870
    16  H    0.188349
    17  H    0.191303
    18  N    0.059032
    19  N   -0.095542
    20  O   -0.264907
    21  O   -0.268158
    22  O   -0.277723
    23  O   -0.186860
    24  C   -0.272554
    25  H    0.201663
    26  H    0.194579
    27  H    0.197809
    28  C   -0.280815
    29  H    0.193941
    30  H    0.192888
    31  H    0.200791
    32  C    0.358788
    33  C   -0.658903
    34  S   -0.633421
    35  C   -0.023739
    36  H    0.161945
    37  C    0.543959
    38  O   -0.114129
    39  C    0.940114
    40  C   -0.292807
    41  C    0.044054
    42  S   -0.280802
    43  H    0.183398
    44  H    0.162686
    45  H    0.163902
    46  C   -0.637755
    47  O   -0.118184
    48  C   -0.351571
    49  H    0.155499
    50  C   -0.307945
    51  H    0.186046
    52  H    0.156039
    53  H    0.179680
    54  H    0.159407
 Sum of Mulliken charges =  -0.00000

 Dipole moment (field-independent basis, Debye):
    X=             -2.3343    Y=             -0.1769    Z=              0.5152  Tot=              2.3970
 Quadrupole moment (field-independent basis, Debye-Ang):
   XX=           -213.2428   YY=           -216.6683   ZZ=           -213.2304
   XY=             -9.0184   XZ=            -10.0167   YZ=             13.9132

 Normal termination of Gaussian 16 at Tue Nov 17 22:56:38 2020.
