 Gaussian 16, Revision C.01,
 Gaussian 16:  ES64L-G16RevC.01  3-Jul-2019

 --------------------------------------
 # opt=modredundant wb97xd/6-311+g(d,p)
 --------------------------------------

 ------------
 NDI_-140.pdb
 ------------
 Symbolic Z-matrix:
 Charge =  0 Multiplicity = 1

 SCF Done:  E(RwB97XD) =  -2358.75390084     A.U. after   19 cycles
 SCF Done:  E(RwB97XD) =  -2358.75793635     A.U. after   20 cycles
 SCF Done:  E(RwB97XD) =  -2358.76658159     A.U. after   18 cycles
 SCF Done:  E(RwB97XD) =  -2358.76944308     A.U. after   17 cycles
 SCF Done:  E(RwB97XD) =  -2358.77017440     A.U. after   15 cycles
 SCF Done:  E(RwB97XD) =  -2358.77066096     A.U. after   16 cycles
 SCF Done:  E(RwB97XD) =  -2358.77087848     A.U. after   16 cycles
 SCF Done:  E(RwB97XD) =  -2358.77110366     A.U. after   18 cycles
 SCF Done:  E(RwB97XD) =  -2358.77136039     A.U. after   13 cycles
 SCF Done:  E(RwB97XD) =  -2358.77230244     A.U. after   18 cycles
 SCF Done:  E(RwB97XD) =  -2358.77339773     A.U. after   11 cycles
 SCF Done:  E(RwB97XD) =  -2358.77341745     A.U. after   13 cycles
 SCF Done:  E(RwB97XD) =  -2358.77342369     A.U. after   13 cycles
 SCF Done:  E(RwB97XD) =  -2358.77342709     A.U. after   11 cycles
 SCF Done:  E(RwB97XD) =  -2358.77342782     A.U. after   11 cycles
 SCF Done:  E(RwB97XD) =  -2358.77342845     A.U. after   13 cycles
 SCF Done:  E(RwB97XD) =  -2358.77342879     A.U. after    9 cycles
 SCF Done:  E(RwB97XD) =  -2358.77342943     A.U. after   10 cycles
 SCF Done:  E(RwB97XD) =  -2358.77342987     A.U. after   10 cycles
 SCF Done:  E(RwB97XD) =  -2358.77342998     A.U. after    9 cycles
 Optimization completed.
    -- Stationary point found.

                         Standard orientation:
 ---------------------------------------------------------------------
 Center     Atomic      Atomic             Coordinates (Angstroms)
 Number     Number       Type             X           Y           Z
 ---------------------------------------------------------------------
      1          6           0       -3.527674   -2.674792    0.422752
      2          6           0       -2.761374   -1.440780    0.107820
      3          6           0       -3.408148   -0.187763    0.105031
      4          6           0       -4.777358   -0.081492    0.418458
      5          6           0       -5.567149   -1.299696    0.746264
      6          6           0       -1.418433   -1.519950   -0.135414
      7          6           0       -2.662687    0.964565   -0.217936
      8          6           0       -1.284047    0.858594   -0.537438
      9          6           0       -0.640496   -0.371828   -0.440947
     10          6           0       -0.615015    2.064135   -1.108608
     11          6           0       -2.570553    3.461974   -0.506767
     12          6           0       -3.317793    2.216171   -0.195191
     13          6           0       -4.653387    2.302852    0.126486
     14          6           0       -5.391866    1.149359    0.429812
     15          1           0       -6.444303    1.210327    0.677746
     16          1           0       -5.119458    3.280468    0.142815
     17          1           0       -0.931330   -2.484806   -0.061939
     18          7           0       -1.250447    3.297772   -0.912030
     19          7           0       -4.880896   -2.518323    0.720853
     20          8           0       -3.020893   -3.773902    0.424779
     21          8           0       -6.744253   -1.244531    1.019257
     22          8           0       -3.081780    4.557435   -0.433780
     23          8           0        0.413306    2.017703   -1.739564
     24          6           0       -0.517873    4.481999   -1.357768
     25          1           0        0.523465    4.387479   -1.056968
     26          1           0       -0.560870    4.572093   -2.444956
     27          1           0       -0.977265    5.353913   -0.900822
     28          6           0       -5.617719   -3.742948    1.030856
     29          1           0       -5.573164   -4.424465    0.181206
     30          1           0       -5.168381   -4.234171    1.894047
     31          1           0       -6.646939   -3.470388    1.243817
     32          6           0        0.809607   -0.581919   -0.535980
     33          6           0        1.434854   -1.615635   -1.180299
     34         16           0        1.923356    0.345210    0.399333
     35          6           0        2.832575   -1.624692   -0.957344
     36          1           0        0.909072   -2.318789   -1.811427
     37          6           0        3.269305   -0.628301   -0.108197
     38          8           0        3.723612   -2.497487   -1.482908
     39          6           0        4.623720   -0.381746    0.335939
     40          6           0        3.224317   -3.506736   -2.335221
     41          6           0        5.052759    0.605851    1.196878
     42         16           0        5.982519   -1.342052   -0.179881
     43          1           0        4.086199   -4.094533   -2.645739
     44          1           0        2.514956   -4.154950   -1.808817
     45          1           0        2.742580   -3.075071   -3.219398
     46          6           0        6.454372    0.594236    1.437466
     47          8           0        4.155128    1.468995    1.727302
     48          6           0        7.073265   -0.408149    0.753985
     49          1           0        6.975595    1.288287    2.080881
     50          6           0        4.647338    2.495972    2.562355
     51          1           0        8.125555   -0.648725    0.751923
     52          1           0        5.353032    3.138694    2.024969
     53          1           0        3.781390    3.083317    2.862645
     54          1           0        5.131062    2.083278    3.454385
 ---------------------------------------------------------------------

 The electronic state is 1-A.
 Alpha  occ. eigenvalues --  -89.04706 -89.04511 -19.28977 -19.28882 -19.25097
 Alpha  occ. eigenvalues --  -19.25077 -19.24619 -19.24603 -14.50655 -14.50136
 Alpha  occ. eigenvalues --  -10.42885 -10.42698 -10.42441 -10.42343 -10.35287
 Alpha  occ. eigenvalues --  -10.35250 -10.35147 -10.34551 -10.34442 -10.34366
 Alpha  occ. eigenvalues --  -10.34135 -10.34095 -10.33861 -10.33836 -10.33722
 Alpha  occ. eigenvalues --  -10.33049 -10.33006 -10.32854 -10.32793 -10.32758
 Alpha  occ. eigenvalues --  -10.32279 -10.32262 -10.32000 -10.31638 -10.30021
 Alpha  occ. eigenvalues --  -10.29551  -8.08731  -8.08533  -6.03586  -6.03376
 Alpha  occ. eigenvalues --   -6.03187  -6.02979  -6.02792  -6.02622  -1.19558
 Alpha  occ. eigenvalues --   -1.19218  -1.18691  -1.18589  -1.17657  -1.17266
 Alpha  occ. eigenvalues --   -1.06805  -1.06353  -1.03278  -1.00565  -0.98918
 Alpha  occ. eigenvalues --   -0.97179  -0.94768  -0.90589  -0.88727  -0.87320
 Alpha  occ. eigenvalues --   -0.86016  -0.85277  -0.84687  -0.82766  -0.82436
 Alpha  occ. eigenvalues --   -0.81172  -0.79746  -0.78343  -0.76877  -0.75583
 Alpha  occ. eigenvalues --   -0.75139  -0.74394  -0.70127  -0.68928  -0.67913
 Alpha  occ. eigenvalues --   -0.66697  -0.65849  -0.64992  -0.64229  -0.63557
 Alpha  occ. eigenvalues --   -0.62892  -0.60730  -0.59756  -0.59138  -0.58930
 Alpha  occ. eigenvalues --   -0.58219  -0.57717  -0.57374  -0.57327  -0.57017
 Alpha  occ. eigenvalues --   -0.56541  -0.56003  -0.55453  -0.55348  -0.54237
 Alpha  occ. eigenvalues --   -0.53911  -0.53823  -0.53431  -0.53160  -0.52489
 Alpha  occ. eigenvalues --   -0.51608  -0.51183  -0.50862  -0.50407  -0.50217
 Alpha  occ. eigenvalues --   -0.50117  -0.49619  -0.49443  -0.48937  -0.48424
 Alpha  occ. eigenvalues --   -0.48144  -0.47507  -0.46650  -0.45850  -0.45428
 Alpha  occ. eigenvalues --   -0.44443  -0.44009  -0.42308  -0.41664  -0.41313
 Alpha  occ. eigenvalues --   -0.41234  -0.40208  -0.39667  -0.38543  -0.37606
 Alpha  occ. eigenvalues --   -0.37378  -0.37030  -0.36714  -0.36305  -0.34865
 Alpha  occ. eigenvalues --   -0.33190  -0.31799  -0.31418  -0.25575
 Alpha virt. eigenvalues --   -0.07154  -0.00439   0.00487   0.02301   0.03298
 Alpha virt. eigenvalues --    0.05141   0.05784   0.06050   0.06646   0.06791
 Alpha virt. eigenvalues --    0.07110   0.07535   0.07640   0.07742   0.07890

 Mulliken charges:
               1
     1  C    0.471588
     2  C   -0.115176
     3  C    0.084206
     4  C    0.201401
     5  C    0.367426
     6  C   -0.404496
     7  C    0.079166
     8  C    0.136696
     9  C    0.320398
    10  C   -0.507619
    11  C    0.352571
    12  C    0.050905
    13  C   -0.511804
    14  C   -0.662989
    15  H    0.187873
    16  H    0.188349
    17  H    0.191317
    18  N    0.059194
    19  N   -0.095520
    20  O   -0.264911
    21  O   -0.268158
    22  O   -0.277699
    23  O   -0.186928
    24  C   -0.272580
    25  H    0.194579
    26  H    0.201669
    27  H    0.197795
    28  C   -0.280834
    29  H    0.192703
    30  H    0.194129
    31  H    0.200793
    32  C    0.359190
    33  C   -0.658991
    34  S   -0.634606
    35  C   -0.024295
    36  H    0.161950
    37  C    0.544530
    38  O   -0.114124
    39  C    0.939995
    40  C   -0.292810
    41  C    0.044554
    42  S   -0.280690
    43  H    0.183401
    44  H    0.163894
    45  H    0.162693
    46  C   -0.637591
    47  O   -0.118194
    48  C   -0.351658
    49  H    0.155501
    50  C   -0.307967
    51  H    0.186047
    52  H    0.159435
    53  H    0.179673
    54  H    0.156021
 Sum of Mulliken charges =  -0.00000

 Dipole moment (field-independent basis, Debye):
    X=              2.3333    Y=             -0.1787    Z=              0.5153  Tot=              2.3961
 Quadrupole moment (field-independent basis, Debye-Ang):
   XX=           -213.2415   YY=           -216.6689   ZZ=           -213.2309
   XY=              9.0174   XZ=             10.0297   YZ=             13.9273

 Normal termination of Gaussian 16 at Wed Nov 18 06:00:31 2020.
