 Gaussian 16, Revision C.01,
 Gaussian 16:  ES64L-G16RevC.01  3-Jul-2019

 --------------------------------------
 # opt=modredundant wb97xd/6-311+g(d,p)
 --------------------------------------

 ----------
 NDI_20.pdb
 ----------
 Symbolic Z-matrix:
 Charge =  0 Multiplicity = 1

 SCF Done:  E(RwB97XD) =  -2358.75563134     A.U. after   19 cycles
 SCF Done:  E(RwB97XD) =  -2358.75041084     A.U. after   20 cycles
 SCF Done:  E(RwB97XD) =  -2358.76628246     A.U. after   17 cycles
 SCF Done:  E(RwB97XD) =  -2358.76914963     A.U. after   17 cycles
 SCF Done:  E(RwB97XD) =  -2358.76920122     A.U. after   15 cycles
 SCF Done:  E(RwB97XD) =  -2358.76995856     A.U. after   14 cycles
 SCF Done:  E(RwB97XD) =  -2358.77013226     A.U. after   15 cycles
 SCF Done:  E(RwB97XD) =  -2358.77031182     A.U. after   17 cycles
 SCF Done:  E(RwB97XD) =  -2358.77051196     A.U. after   14 cycles
 SCF Done:  E(RwB97XD) =  -2358.77110072     A.U. after   19 cycles
 SCF Done:  E(RwB97XD) =  -2358.77214564     A.U. after   16 cycles
 SCF Done:  E(RwB97XD) =  -2358.77214789     A.U. after   14 cycles
 SCF Done:  E(RwB97XD) =  -2358.77216058     A.U. after   14 cycles
 SCF Done:  E(RwB97XD) =  -2358.77216552     A.U. after   14 cycles
 SCF Done:  E(RwB97XD) =  -2358.77216680     A.U. after   12 cycles
 SCF Done:  E(RwB97XD) =  -2358.77216740     A.U. after   11 cycles
 SCF Done:  E(RwB97XD) =  -2358.77216752     A.U. after   12 cycles
 SCF Done:  E(RwB97XD) =  -2358.77216758     A.U. after   12 cycles
 SCF Done:  E(RwB97XD) =  -2358.77216777     A.U. after   12 cycles
 SCF Done:  E(RwB97XD) =  -2358.77216784     A.U. after   12 cycles
 Optimization completed.
    -- Stationary point found.

                         Standard orientation:
 ---------------------------------------------------------------------
 Center     Atomic      Atomic             Coordinates (Angstroms)
 Number     Number       Type             X           Y           Z
 ---------------------------------------------------------------------
      1          6           0       -2.626698   -3.010415    0.212427
      2          6           0       -2.280804   -1.569737    0.086895
      3          6           0       -3.298390   -0.594673    0.046987
      4          6           0       -4.651750   -0.967136    0.143828
      5          6           0       -5.028606   -2.401315    0.274094
      6          6           0       -0.971667   -1.193826    0.062066
      7          6           0       -2.931695    0.760074   -0.092733
      8          6           0       -1.560915    1.137168   -0.193268
      9          6           0       -0.558259    0.166489   -0.054691
     10          6           0       -1.286233    2.544555   -0.605053
     11          6           0       -3.660081    3.163652   -0.235712
     12          6           0       -3.969136    1.720376   -0.107348
     13          6           0       -5.289298    1.341275    0.005610
     14          6           0       -5.639508   -0.008776    0.125192
     15          1           0       -6.675060   -0.314498    0.206073
     16          1           0       -6.048296    2.113948    0.000083
     17          1           0       -0.228302   -1.975479    0.164427
     18          7           0       -2.325254    3.475122   -0.467628
     19          7           0       -3.981473   -3.327894    0.293035
     20          8           0       -1.787880   -3.882198    0.244603
     21          8           0       -6.182861   -2.753648    0.357611
     22          8           0       -4.513772    4.020711   -0.170610
     23          8           0       -0.233759    2.922685   -1.068133
     24          6           0       -1.985458    4.865551   -0.765109
     25          1           0       -1.088820    5.145052   -0.213967
     26          1           0       -1.789085    4.988247   -1.831368
     27          1           0       -2.826624    5.484897   -0.467958
     28          6           0       -4.305052   -4.748641    0.414834
     29          1           0       -3.911624   -5.290220   -0.445487
     30          1           0       -3.849657   -5.154276    1.318495
     31          1           0       -5.385735   -4.843736    0.460722
     32          6           0        0.873157    0.409981    0.126616
     33          6           0        1.530853    1.531979    0.560892
     34         16           0        2.010187   -0.845021   -0.273830
     35          6           0        2.929389    1.375010    0.590293
     36          1           0        1.028612    2.436826    0.858685
     37          6           0        3.367784    0.136229    0.157729
     38          8           0        3.829847    2.301963    0.988499
     39          6           0        4.732515   -0.324564    0.053072
     40          6           0        3.347324    3.604682    1.252432
     41          6           0        5.162705   -1.568449   -0.361743
     42         16           0        6.106191    0.672609    0.446586
     43          1           0        4.223674    4.214280    1.464944
     44          1           0        2.817898    4.011020    0.384148
     45          1           0        2.684003    3.610536    2.124409
     46          6           0        6.576390   -1.718616   -0.363445
     47          8           0        4.255843   -2.503903   -0.719384
     48          6           0        7.202260   -0.581964    0.051385
     49          1           0        7.100814   -2.617091   -0.654837
     50          6           0        4.738043   -3.769625   -1.123294
     51          1           0        8.264764   -0.416985    0.147438
     52          1           0        5.300776   -4.252854   -0.317518
     53          1           0        3.858845   -4.366806   -1.357584
     54          1           0        5.368275   -3.685431   -2.015057
 ---------------------------------------------------------------------

 The electronic state is 1-A.
 Alpha  occ. eigenvalues --  -89.05147 -89.04885 -19.29315 -19.29060 -19.24918
 Alpha  occ. eigenvalues --  -19.24893 -19.24528 -19.24462 -14.50480 -14.50133
 Alpha  occ. eigenvalues --  -10.42694 -10.42519 -10.42500 -10.42173 -10.35730
 Alpha  occ. eigenvalues --  -10.35537 -10.35471 -10.34687 -10.34451 -10.34249
 Alpha  occ. eigenvalues --  -10.33959 -10.33740 -10.33610 -10.33570 -10.33438
 Alpha  occ. eigenvalues --  -10.33386 -10.33155 -10.32743 -10.32623 -10.32518
 Alpha  occ. eigenvalues --  -10.32429 -10.32144 -10.32133 -10.32067 -10.30054
 Alpha  occ. eigenvalues --  -10.29889  -8.09181  -8.08906  -6.04028  -6.03749
 Alpha  occ. eigenvalues --   -6.03630  -6.03352  -6.03255  -6.02994  -1.19388
 Alpha  occ. eigenvalues --   -1.19194  -1.19042  -1.18800  -1.17477  -1.17181
 Alpha  occ. eigenvalues --   -1.06639  -1.06268  -1.03014  -1.00838  -0.99161
 Alpha  occ. eigenvalues --   -0.97055  -0.94539  -0.90559  -0.88543  -0.87568
 Alpha  occ. eigenvalues --   -0.86180  -0.85189  -0.85008  -0.82926  -0.82270
 Alpha  occ. eigenvalues --   -0.81525  -0.79732  -0.78397  -0.76825  -0.75422
 Alpha  occ. eigenvalues --   -0.75164  -0.74167  -0.70328  -0.69033  -0.67970
 Alpha  occ. eigenvalues --   -0.66537  -0.65851  -0.65351  -0.64544  -0.63850
 Alpha  occ. eigenvalues --   -0.62400  -0.60639  -0.59703  -0.59212  -0.58729
 Alpha  occ. eigenvalues --   -0.58337  -0.57675  -0.57564  -0.57291  -0.57157
 Alpha  occ. eigenvalues --   -0.56710  -0.55766  -0.55431  -0.55129  -0.54493
 Alpha  occ. eigenvalues --   -0.53887  -0.53667  -0.53406  -0.53108  -0.51958
 Alpha  occ. eigenvalues --   -0.51667  -0.51141  -0.50927  -0.50670  -0.50419
 Alpha  occ. eigenvalues --   -0.50175  -0.49510  -0.49470  -0.48880  -0.48445
 Alpha  occ. eigenvalues --   -0.47970  -0.47785  -0.46980  -0.45925  -0.45491
 Alpha  occ. eigenvalues --   -0.44545  -0.44239  -0.42545  -0.41976  -0.41398
 Alpha  occ. eigenvalues --   -0.41302  -0.40076  -0.39581  -0.38542  -0.37765
 Alpha  occ. eigenvalues --   -0.37251  -0.37046  -0.36794  -0.36358  -0.34556
 Alpha  occ. eigenvalues --   -0.33112  -0.31904  -0.31705  -0.25705
 Alpha virt. eigenvalues --   -0.07159  -0.01089   0.00560   0.02507   0.03562
 Alpha virt. eigenvalues --    0.05197   0.05685   0.06027   0.06724   0.07064
 Alpha virt. eigenvalues --    0.07167   0.07378   0.07815   0.08011   0.08088

 Mulliken charges:
               1
     1  C    0.374541
     2  C   -0.120159
     3  C    0.153539
     4  C    0.185921
     5  C    0.365270
     6  C   -0.087776
     7  C    0.151253
     8  C    0.558748
     9  C    0.225054
    10  C   -0.870114
    11  C    0.298586
    12  C    0.081946
    13  C   -0.539263
    14  C   -0.663805
    15  H    0.186764
    16  H    0.187856
    17  H    0.193285
    18  N    0.046790
    19  N   -0.088646
    20  O   -0.269874
    21  O   -0.265782
    22  O   -0.278764
    23  O   -0.221723
    24  C   -0.250517
    25  H    0.180966
    26  H    0.201257
    27  H    0.200876
    28  C   -0.285102
    29  H    0.192461
    30  H    0.193579
    31  H    0.199705
    32  C    0.004103
    33  C   -0.413582
    34  S   -0.742669
    35  C   -0.179569
    36  H    0.158193
    37  C    0.683064
    38  O   -0.105758
    39  C    0.964770
    40  C   -0.315212
    41  C    0.040524
    42  S   -0.264246
    43  H    0.182939
    44  H    0.179351
    45  H    0.156851
    46  C   -0.660959
    47  O   -0.109974
    48  C   -0.353645
    49  H    0.157539
    50  C   -0.308593
    51  H    0.188263
    52  H    0.159303
    53  H    0.184906
    54  H    0.157528
 Sum of Mulliken charges =  -0.00000

 Dipole moment (field-independent basis, Debye):
    X=              3.4094    Y=             -0.3612    Z=              0.3247  Tot=              3.4438
 Quadrupole moment (field-independent basis, Debye-Ang):
   XX=           -213.8258   YY=           -205.8036   ZZ=           -221.1825
   XY=             -4.6430   XZ=             -0.6235   YZ=              9.3233

 Normal termination of Gaussian 16 at Wed Nov 18 04:35:09 2020.
