 Gaussian 16, Revision C.01,
 Gaussian 16:  ES64L-G16RevC.01  3-Jul-2019

 --------------------------------------
 # opt=modredundant wb97xd/6-311+g(d,p)
 --------------------------------------

 -----------
 NDI_130.pdb
 -----------
 Symbolic Z-matrix:
 Charge =  0 Multiplicity = 1

 SCF Done:  E(RwB97XD) =  -2358.76176695     A.U. after   22 cycles
 SCF Done:  E(RwB97XD) =  -2358.76677896     A.U. after   20 cycles
 SCF Done:  E(RwB97XD) =  -2358.77173770     A.U. after   17 cycles
 SCF Done:  E(RwB97XD) =  -2358.77288808     A.U. after   16 cycles
 SCF Done:  E(RwB97XD) =  -2358.77324249     A.U. after   16 cycles
 SCF Done:  E(RwB97XD) =  -2358.77353800     A.U. after   14 cycles
 SCF Done:  E(RwB97XD) =  -2358.77360182     A.U. after   15 cycles
 SCF Done:  E(RwB97XD) =  -2358.77366372     A.U. after   13 cycles
 SCF Done:  E(RwB97XD) =  -2358.77368370     A.U. after   12 cycles
 SCF Done:  E(RwB97XD) =  -2358.77370684     A.U. after   13 cycles
 SCF Done:  E(RwB97XD) =  -2358.77380085     A.U. after   13 cycles
 SCF Done:  E(RwB97XD) =  -2358.77380173     A.U. after   13 cycles
 SCF Done:  E(RwB97XD) =  -2358.77380319     A.U. after   12 cycles
 SCF Done:  E(RwB97XD) =  -2358.77380382     A.U. after   13 cycles
 SCF Done:  E(RwB97XD) =  -2358.77380464     A.U. after   10 cycles
 SCF Done:  E(RwB97XD) =  -2358.77380507     A.U. after   11 cycles
 SCF Done:  E(RwB97XD) =  -2358.77380548     A.U. after   11 cycles
 SCF Done:  E(RwB97XD) =  -2358.77380579     A.U. after   10 cycles
 SCF Done:  E(RwB97XD) =  -2358.77380587     A.U. after   10 cycles
 SCF Done:  E(RwB97XD) =  -2358.77380591     A.U. after    9 cycles
 Optimization completed.
    -- Stationary point found.

                         Standard orientation:
 ---------------------------------------------------------------------
 Center     Atomic      Atomic             Coordinates (Angstroms)
 Number     Number       Type             X           Y           Z
 ---------------------------------------------------------------------
      1          6           0        3.520678   -2.682338    0.457714
      2          6           0        2.757950   -1.447405    0.137393
      3          6           0        3.412816   -0.199170    0.108502
      4          6           0        4.787849   -0.098568    0.400025
      5          6           0        5.574008   -1.317637    0.733742
      6          6           0        1.411344   -1.520771   -0.092279
      7          6           0        2.672241    0.955269   -0.218934
      8          6           0        1.288929    0.855091   -0.517346
      9          6           0        0.641864   -0.370099   -0.402924
     10          6           0        0.607559    2.062824   -1.070761
     11          6           0        2.592822    3.449336   -0.540054
     12          6           0        3.336416    2.202213   -0.223644
     13          6           0        4.677334    2.282862    0.075193
     14          6           0        5.411251    1.127384    0.383854
     15          1           0        6.467864    1.183547    0.614739
     16          1           0        5.151615    3.256637    0.069904
     17          1           0        0.915504   -2.480650   -0.010500
     18          7           0        1.260924    3.291942   -0.908146
     19          7           0        4.878704   -2.531025    0.737132
     20          8           0        3.007072   -3.777834    0.479861
     21          8           0        6.755473   -1.266650    0.988121
     22          8           0        3.115951    4.540670   -0.498061
     23          8           0       -0.446554    2.020819   -1.657369
     24          6           0        0.524900    4.478812   -1.341364
     25          1           0        0.537954    4.561081   -2.429942
     26          1           0       -0.508062    4.393998   -1.010511
     27          1           0        1.003347    5.350519   -0.904043
     28          6           0        5.610991   -3.756480    1.054716
     29          1           0        5.160806   -4.238929    1.922280
     30          1           0        5.562229   -4.444482    0.210437
     31          1           0        6.641856   -3.486864    1.263391
     32          6           0       -0.810970   -0.568590   -0.513599
     33          6           0       -1.448513   -1.489905   -1.295628
     34         16           0       -1.911231    0.261091    0.522442
     35          6           0       -2.850837   -1.491863   -1.087813
     36          1           0       -0.929916   -2.114639   -2.009590
     37          6           0       -3.275214   -0.602229   -0.123578
     38          8           0       -3.754518   -2.269090   -1.729318
     39          6           0       -4.629154   -0.382727    0.337955
     40          6           0       -3.269376   -3.161672   -2.710079
     41          6           0       -5.047477    0.502961    1.307564
     42         16           0       -6.000998   -1.247336   -0.298386
     43          1           0       -4.140817   -3.681682   -3.103812
     44          1           0       -2.770831   -2.622872   -3.523289
     45          1           0       -2.578577   -3.892126   -2.274485
     46          6           0       -6.451227    0.490369    1.535658
     47          8           0       -4.138509    1.279435    1.943746
     48          6           0       -7.082961   -0.410498    0.733118
     49          1           0       -6.964881    1.113147    2.253804
     50          6           0       -4.618514    2.198905    2.901683
     51          1           0       -8.139613   -0.627642    0.694508
     52          1           0       -5.116744    1.683841    3.730312
     53          1           0       -3.744582    2.726328    3.280054
     54          1           0       -5.308460    2.919019    2.448402
 ---------------------------------------------------------------------

 The electronic state is 1-A.
 Alpha  occ. eigenvalues --  -89.04598 -89.04367 -19.28832 -19.28766 -19.25148
 Alpha  occ. eigenvalues --  -19.25116 -19.24710 -19.24695 -14.50702 -14.50223
 Alpha  occ. eigenvalues --  -10.42940 -10.42740 -10.42525 -10.42438 -10.35157
 Alpha  occ. eigenvalues --  -10.35123 -10.35070 -10.34455 -10.34447 -10.34354
 Alpha  occ. eigenvalues --  -10.34287 -10.34219 -10.33951 -10.33915 -10.33838
 Alpha  occ. eigenvalues --  -10.33052 -10.32968 -10.32943 -10.32899 -10.32518
 Alpha  occ. eigenvalues --  -10.32314 -10.32122 -10.32037 -10.31477 -10.29844
 Alpha  occ. eigenvalues --  -10.29417  -8.08622  -8.08390  -6.03478  -6.03232
 Alpha  occ. eigenvalues --   -6.03080  -6.02836  -6.02681  -6.02478  -1.19607
 Alpha  occ. eigenvalues --   -1.19303  -1.18546  -1.18459  -1.17706  -1.17358
 Alpha  occ. eigenvalues --   -1.06857  -1.06430  -1.03362  -1.00446  -0.98817
 Alpha  occ. eigenvalues --   -0.97198  -0.94852  -0.90571  -0.88802  -0.87239
 Alpha  occ. eigenvalues --   -0.85908  -0.85331  -0.84544  -0.82696  -0.82434
 Alpha  occ. eigenvalues --   -0.81211  -0.79635  -0.78289  -0.76935  -0.75653
 Alpha  occ. eigenvalues --   -0.75185  -0.74416  -0.70115  -0.68844  -0.67865
 Alpha  occ. eigenvalues --   -0.66749  -0.65807  -0.64859  -0.64300  -0.63419
 Alpha  occ. eigenvalues --   -0.62902  -0.60792  -0.59813  -0.59198  -0.58968
 Alpha  occ. eigenvalues --   -0.58145  -0.57758  -0.57366  -0.57255  -0.56907
 Alpha  occ. eigenvalues --   -0.56449  -0.56099  -0.55503  -0.55377  -0.54212
 Alpha  occ. eigenvalues --   -0.53957  -0.53822  -0.53363  -0.53198  -0.52508
 Alpha  occ. eigenvalues --   -0.51641  -0.51212  -0.50938  -0.50379  -0.50193
 Alpha  occ. eigenvalues --   -0.50009  -0.49591  -0.49413  -0.48935  -0.48440
 Alpha  occ. eigenvalues --   -0.48206  -0.47368  -0.46655  -0.45843  -0.45335
 Alpha  occ. eigenvalues --   -0.44349  -0.43871  -0.42218  -0.41539  -0.41225
 Alpha  occ. eigenvalues --   -0.41137  -0.40305  -0.39720  -0.38598  -0.37593
 Alpha  occ. eigenvalues --   -0.37425  -0.36998  -0.36785  -0.36225  -0.34948
 Alpha  occ. eigenvalues --   -0.33272  -0.31705  -0.31340  -0.25503
 Alpha virt. eigenvalues --   -0.07187  -0.00244   0.00470   0.02255   0.03151
 Alpha virt. eigenvalues --    0.05120   0.05822   0.06112   0.06625   0.06825
 Alpha virt. eigenvalues --    0.07139   0.07529   0.07567   0.07741   0.07889

 Mulliken charges:
               1
     1  C    0.476487
     2  C   -0.100589
     3  C    0.096246
     4  C    0.180917
     5  C    0.369031
     6  C   -0.494621
     7  C    0.093114
     8  C    0.078722
     9  C    0.299960
    10  C   -0.460117
    11  C    0.337620
    12  C    0.072115
    13  C   -0.487615
    14  C   -0.686773
    15  H    0.188222
    16  H    0.188699
    17  H    0.193026
    18  N    0.040831
    19  N   -0.094866
    20  O   -0.262657
    21  O   -0.268996
    22  O   -0.276313
    23  O   -0.174063
    24  C   -0.267396
    25  H    0.201792
    26  H    0.195066
    27  H    0.197514
    28  C   -0.282149
    29  H    0.193902
    30  H    0.193396
    31  H    0.200914
    32  C    0.426821
    33  C   -0.592572
    34  S   -0.522749
    35  C   -0.056455
    36  H    0.157496
    37  C    0.437458
    38  O   -0.111417
    39  C    0.914398
    40  C   -0.291325
    41  C    0.051371
    42  S   -0.289192
    43  H    0.182781
    44  H    0.163638
    45  H    0.162456
    46  C   -0.621294
    47  O   -0.120122
    48  C   -0.360554
    49  H    0.155020
    50  C   -0.305843
    51  H    0.185270
    52  H    0.155721
    53  H    0.179097
    54  H    0.158580
 Sum of Mulliken charges =  -0.00000

 Dipole moment (field-independent basis, Debye):
    X=             -1.9627    Y=             -0.0762    Z=              0.4023  Tot=              2.0049
 Quadrupole moment (field-independent basis, Debye-Ang):
   XX=           -214.3908   YY=           -219.8259   ZZ=           -209.4171
   XY=             -8.3665   XZ=             -9.8454   YZ=             14.3961

 Normal termination of Gaussian 16 at Tue Nov 17 23:12:03 2020.
