 Gaussian 16, Revision C.01,
 Gaussian 16:  ES64L-G16RevC.01  3-Jul-2019

 --------------------------------------
 # opt=modredundant wb97xd/6-311+g(d,p)
 --------------------------------------

 ----------
 NDI_70.pdb
 ----------
 Symbolic Z-matrix:
 Charge =  0 Multiplicity = 1

 SCF Done:  E(RwB97XD) =  -2358.76485402     A.U. after   19 cycles
 SCF Done:  E(RwB97XD) =  -2358.77161325     A.U. after   16 cycles
 SCF Done:  E(RwB97XD) =  -2358.77273730     A.U. after   17 cycles
 SCF Done:  E(RwB97XD) =  -2358.77322386     A.U. after   14 cycles
 SCF Done:  E(RwB97XD) =  -2358.77336777     A.U. after   15 cycles
 SCF Done:  E(RwB97XD) =  -2358.77348538     A.U. after   14 cycles
 SCF Done:  E(RwB97XD) =  -2358.77356418     A.U. after   14 cycles
 SCF Done:  E(RwB97XD) =  -2358.77363664     A.U. after   14 cycles
 SCF Done:  E(RwB97XD) =  -2358.77367744     A.U. after   13 cycles
 SCF Done:  E(RwB97XD) =  -2358.77369380     A.U. after   13 cycles
 SCF Done:  E(RwB97XD) =  -2358.77381766     A.U. after   12 cycles
 SCF Done:  E(RwB97XD) =  -2358.77381829     A.U. after   13 cycles
 SCF Done:  E(RwB97XD) =  -2358.77381871     A.U. after   13 cycles
 SCF Done:  E(RwB97XD) =  -2358.77381901     A.U. after   11 cycles
 SCF Done:  E(RwB97XD) =  -2358.77381931     A.U. after   12 cycles
 SCF Done:  E(RwB97XD) =  -2358.77381953     A.U. after   12 cycles
 SCF Done:  E(RwB97XD) =  -2358.77381964     A.U. after   11 cycles
 SCF Done:  E(RwB97XD) =  -2358.77381969     A.U. after   10 cycles
 SCF Done:  E(RwB97XD) =  -2358.77381973     A.U. after   10 cycles
 SCF Done:  E(RwB97XD) =  -2358.77381975     A.U. after    8 cycles
 Optimization completed.
    -- Stationary point found.

                         Standard orientation:
 ---------------------------------------------------------------------
 Center     Atomic      Atomic             Coordinates (Angstroms)
 Number     Number       Type             X           Y           Z
 ---------------------------------------------------------------------
      1          6           0       -3.047384   -2.859286    0.579035
      2          6           0       -2.503917   -1.495321    0.343495
      3          6           0       -3.373181   -0.429339    0.036614
      4          6           0       -4.765270   -0.637901   -0.046169
      5          6           0       -5.337190   -1.992847    0.185824
      6          6           0       -1.157561   -1.274071    0.446388
      7          6           0       -2.833730    0.854402   -0.190702
      8          6           0       -1.431652    1.064421   -0.109950
      9          6           0       -0.596007    0.011573    0.242779
     10          6           0       -0.895663    2.411672   -0.475648
     11          6           0       -3.209668    3.284434   -0.729157
     12          6           0       -3.722583    1.911474   -0.489040
     13          6           0       -5.078830    1.690348   -0.559689
     14          6           0       -5.606431    0.409057   -0.339981
     15          1           0       -6.672610    0.227751   -0.397146
     16          1           0       -5.728237    2.526735   -0.787327
     17          1           0       -0.506920   -2.099713    0.709677
     18          7           0       -1.827503    3.436546   -0.690623
     19          7           0       -4.430263   -3.014135    0.481086
     20          8           0       -2.340902   -3.804389    0.844866
     21          8           0       -6.526783   -2.202916    0.121966
     22          8           0       -3.948971    4.216570   -0.954267
     23          8           0        0.280201    2.653432   -0.603191
     24          6           0       -1.265928    4.753174   -0.991216
     25          1           0       -0.555903    5.031574   -0.213503
     26          1           0       -0.740154    4.727002   -1.946488
     27          1           0       -2.085315    5.464362   -1.033901
     28          6           0       -4.945383   -4.362633    0.715923
     29          1           0       -4.507437   -5.054002   -0.004080
     30          1           0       -4.675560   -4.690056    1.720097
     31          1           0       -6.025095   -4.333426    0.604786
     32          6           0        0.858883    0.139192    0.451255
     33          6           0        1.494629    0.775789    1.473970
     34         16           0        1.965863   -0.670345   -0.592879
     35          6           0        2.903941    0.628887    1.400823
     36          1           0        0.970615    1.337638    2.234009
     37          6           0        3.335955   -0.125850    0.332701
     38          8           0        3.805434    1.143437    2.270473
     39          6           0        4.701241   -0.437034   -0.034849
     40          6           0        3.335525    2.082941    3.214397
     41          6           0        5.125357   -1.217364   -1.088133
     42         16           0        6.080335    0.173739    0.835922
     43          1           0        4.213157    2.437871    3.751953
     44          1           0        2.844206    2.927374    2.719009
     45          1           0        2.642605    1.619024    3.925264
     46          6           0        6.539719   -1.323295   -1.197045
     47          8           0        4.211852   -1.797290   -1.903243
     48          6           0        7.173677   -0.618379   -0.219470
     49          1           0        7.058891   -1.890538   -1.956098
     50          6           0        4.693581   -2.581256   -2.973894
     51          1           0        8.237339   -0.526214   -0.060636
     52          1           0        5.279908   -3.432006   -2.609633
     53          1           0        3.814270   -2.949371   -3.499616
     54          1           0        5.301992   -1.982649   -3.660706
 ---------------------------------------------------------------------

 The electronic state is 1-A.
 Alpha  occ. eigenvalues --  -89.04563 -89.04153 -19.28584 -19.28529 -19.25215
 Alpha  occ. eigenvalues --  -19.25148 -19.24895 -19.24828 -14.50757 -14.50463
 Alpha  occ. eigenvalues --  -10.43014 -10.42776 -10.42736 -10.42662 -10.35217
 Alpha  occ. eigenvalues --  -10.34904 -10.34810 -10.34654 -10.34594 -10.34401
 Alpha  occ. eigenvalues --  -10.34219 -10.34187 -10.34092 -10.34023 -10.34008
 Alpha  occ. eigenvalues --  -10.33114 -10.33072 -10.33046 -10.32721 -10.32350
 Alpha  occ. eigenvalues --  -10.32183 -10.32176 -10.31905 -10.31250 -10.29469
 Alpha  occ. eigenvalues --  -10.29213  -8.08575  -8.08176  -6.03430  -6.03031
 Alpha  occ. eigenvalues --   -6.03019  -6.02641  -6.02623  -6.02265  -1.19673
 Alpha  occ. eigenvalues --   -1.19497  -1.18296  -1.18212  -1.17767  -1.17557
 Alpha  occ. eigenvalues --   -1.06934  -1.06576  -1.03482  -1.00287  -0.98672
 Alpha  occ. eigenvalues --   -0.97209  -0.94981  -0.90540  -0.88924  -0.87114
 Alpha  occ. eigenvalues --   -0.85720  -0.85438  -0.84324  -0.82736  -0.82179
 Alpha  occ. eigenvalues --   -0.81474  -0.79349  -0.78208  -0.77059  -0.75777
 Alpha  occ. eigenvalues --   -0.75325  -0.74400  -0.70175  -0.68671  -0.67788
 Alpha  occ. eigenvalues --   -0.66824  -0.65569  -0.64833  -0.64578  -0.63157
 Alpha  occ. eigenvalues --   -0.62740  -0.60899  -0.59920  -0.59347  -0.59047
 Alpha  occ. eigenvalues --   -0.58016  -0.57813  -0.57444  -0.57059  -0.56716
 Alpha  occ. eigenvalues --   -0.56383  -0.56146  -0.55581  -0.55382  -0.54224
 Alpha  occ. eigenvalues --   -0.54082  -0.53597  -0.53495  -0.53136  -0.52439
 Alpha  occ. eigenvalues --   -0.51684  -0.51270  -0.51211  -0.50403  -0.50218
 Alpha  occ. eigenvalues --   -0.49712  -0.49622  -0.49219  -0.48999  -0.48456
 Alpha  occ. eigenvalues --   -0.48351  -0.47107  -0.46862  -0.45880  -0.45109
 Alpha  occ. eigenvalues --   -0.44139  -0.43639  -0.42155  -0.41463  -0.41096
 Alpha  occ. eigenvalues --   -0.40730  -0.40487  -0.39792  -0.38677  -0.37644
 Alpha  occ. eigenvalues --   -0.37513  -0.37133  -0.37026  -0.36134  -0.34804
 Alpha  occ. eigenvalues --   -0.33450  -0.31497  -0.31237  -0.25384
 Alpha virt. eigenvalues --   -0.07290  -0.00108   0.00567   0.02214   0.02814
 Alpha virt. eigenvalues --    0.04953   0.05946   0.06089   0.06730   0.06880
 Alpha virt. eigenvalues --    0.07343   0.07459   0.07586   0.07706   0.07871

 Mulliken charges:
               1
     1  C    0.462668
     2  C   -0.042963
     3  C    0.110550
     4  C    0.146319
     5  C    0.360226
     6  C   -0.808523
     7  C    0.143821
     8  C    0.157738
     9  C    0.572932
    10  C   -0.388945
    11  C    0.376912
    12  C    0.114908
    13  C   -0.574398
    14  C   -0.723717
    15  H    0.188543
    16  H    0.189346
    17  H    0.203784
    18  N   -0.078474
    19  N   -0.097432
    20  O   -0.257966
    21  O   -0.267865
    22  O   -0.272065
    23  O   -0.097529
    24  C   -0.278386
    25  H    0.191067
    26  H    0.201666
    27  H    0.201686
    28  C   -0.282410
    29  H    0.193915
    30  H    0.194458
    31  H    0.200990
    32  C    0.275533
    33  C   -0.532225
    34  S   -0.338791
    35  C   -0.340064
    36  H    0.144247
    37  C    0.418536
    38  O   -0.107563
    39  C    0.939875
    40  C   -0.301487
    41  C    0.048952
    42  S   -0.284410
    43  H    0.181203
    44  H    0.172951
    45  H    0.154651
    46  C   -0.513922
    47  O   -0.118412
    48  C   -0.368319
    49  H    0.154598
    50  C   -0.303395
    51  H    0.184639
    52  H    0.155236
    53  H    0.178805
    54  H    0.158510
 Sum of Mulliken charges =  -0.00000

 Dipole moment (field-independent basis, Debye):
    X=              1.3503    Y=              0.1435    Z=              0.0465  Tot=              1.3587
 Quadrupole moment (field-independent basis, Debye-Ang):
   XX=           -217.6852   YY=           -220.6120   ZZ=           -205.5867
   XY=             -1.1838   XZ=             -7.8190   YZ=             15.8560

 Normal termination of Gaussian 16 at Wed Nov 18 00:34:00 2020.
