 Gaussian 16, Revision C.01,
 Gaussian 16:  ES64L-G16RevC.01  3-Jul-2019

 --------------------------------------
 # opt=modredundant wb97xd/6-311+g(d,p)
 --------------------------------------

 ------------
 NDI_-120.pdb
 ------------
 Symbolic Z-matrix:
 Charge =  0 Multiplicity = 1

 SCF Done:  E(RwB97XD) =  -2358.76239417     A.U. after   20 cycles
 SCF Done:  E(RwB97XD) =  -2358.77074730     A.U. after   19 cycles
 SCF Done:  E(RwB97XD) =  -2358.77214527     A.U. after   17 cycles
 SCF Done:  E(RwB97XD) =  -2358.77318804     A.U. after   16 cycles
 SCF Done:  E(RwB97XD) =  -2358.77346548     A.U. after   17 cycles
 SCF Done:  E(RwB97XD) =  -2358.77366061     A.U. after   15 cycles
 SCF Done:  E(RwB97XD) =  -2358.77376199     A.U. after   15 cycles
 SCF Done:  E(RwB97XD) =  -2358.77375227     A.U. after   13 cycles
 SCF Done:  E(RwB97XD) =  -2358.77376761     A.U. after   12 cycles
 SCF Done:  E(RwB97XD) =  -2358.77378238     A.U. after   12 cycles
 SCF Done:  E(RwB97XD) =  -2358.77386942     A.U. after   12 cycles
 SCF Done:  E(RwB97XD) =  -2358.77386948     A.U. after   11 cycles
 SCF Done:  E(RwB97XD) =  -2358.77386967     A.U. after   12 cycles
 SCF Done:  E(RwB97XD) =  -2358.77386999     A.U. after   12 cycles
 SCF Done:  E(RwB97XD) =  -2358.77387018     A.U. after   13 cycles
 SCF Done:  E(RwB97XD) =  -2358.77386967     A.U. after   12 cycles
 SCF Done:  E(RwB97XD) =  -2358.77387020     A.U. after   13 cycles
 SCF Done:  E(RwB97XD) =  -2358.77387063     A.U. after   10 cycles
 SCF Done:  E(RwB97XD) =  -2358.77387079     A.U. after   10 cycles
 SCF Done:  E(RwB97XD) =  -2358.77387082     A.U. after    9 cycles
 Optimization completed.
    -- Stationary point found.

                         Standard orientation:
 ---------------------------------------------------------------------
 Center     Atomic      Atomic             Coordinates (Angstroms)
 Number     Number       Type             X           Y           Z
 ---------------------------------------------------------------------
      1          6           0       -3.501434   -2.702353    0.438284
      2          6           0       -2.748193   -1.457001    0.135797
      3          6           0       -3.415854   -0.215980    0.106680
      4          6           0       -4.796386   -0.132889    0.379724
      5          6           0       -5.573560   -1.362826    0.694670
      6          6           0       -1.398552   -1.514742   -0.084990
      7          6           0       -2.684675    0.949890   -0.201559
      8          6           0       -1.296818    0.867218   -0.482462
      9          6           0       -0.641558   -0.353353   -0.380456
     10          6           0       -0.607864    2.093842   -0.984496
     11          6           0       -2.629410    3.447615   -0.502472
     12          6           0       -3.362992    2.189253   -0.206947
     13          6           0       -4.708892    2.252087    0.071645
     14          6           0       -5.433414    1.085617    0.362173
     15          1           0       -6.493863    1.127929    0.578054
     16          1           0       -5.194856    3.220067    0.065148
     17          1           0       -0.892033   -2.469968   -0.014611
     18          7           0       -1.285632    3.311134   -0.834058
     19          7           0       -4.864723   -2.567960    0.701100
     20          8           0       -2.975996   -3.792014    0.460195
     21          8           0       -6.759091   -1.326230    0.932102
     22          8           0       -3.169426    4.530891   -0.470187
     23          8           0        0.475133    2.076810   -1.516800
     24          6           0       -0.550206    4.512777   -1.226117
     25          1           0        0.468019    4.442432   -0.849310
     26          1           0       -0.515277    4.601667   -2.313643
     27          1           0       -1.062039    5.373726   -0.805807
     28          6           0       -5.587179   -3.803600    1.001440
     29          1           0       -5.523224   -4.484111    0.152093
     30          1           0       -5.140107   -4.288404    1.869252
     31          1           0       -6.622800   -3.546538    1.202250
     32          6           0        0.814525   -0.535151   -0.514563
     33          6           0        1.461323   -1.304197   -1.436672
     34         16           0        1.904214    0.151276    0.630704
     35          6           0        2.866955   -1.306866   -1.238772
     36          1           0        0.949136   -1.816929   -2.238805
     37          6           0        3.281883   -0.568130   -0.152390
     38          8           0        3.779608   -1.957430   -1.998084
     39          6           0        4.635550   -0.392124    0.329840
     40          6           0        3.305846   -2.676208   -3.117186
     41          6           0        5.044584    0.339903    1.423221
     42         16           0        6.019431   -1.112784   -0.444643
     43          1           0        4.184198   -3.107698   -3.593874
     44          1           0        2.627546   -3.481317   -2.813426
     45          1           0        2.797049   -2.013929   -3.826164
     46          6           0        6.450761    0.324993    1.636512
     47          8           0        4.125387    0.986304    2.180003
     48          6           0        7.094050   -0.422967    0.697799
     49          1           0        6.957923    0.839218    2.440158
     50          6           0        4.595273    1.749735    3.270454
     51          1           0        8.154783   -0.606180    0.617830
     52          1           0        5.266607    2.547972    2.935297
     53          1           0        3.714409    2.190958    3.733667
     54          1           0        5.111191    1.119101    4.002847
 ---------------------------------------------------------------------

 The electronic state is 1-A.
 Alpha  occ. eigenvalues --  -89.04492 -89.04228 -19.28688 -19.28644 -19.25199
 Alpha  occ. eigenvalues --  -19.25155 -19.24801 -19.24786 -14.50748 -14.50316
 Alpha  occ. eigenvalues --  -10.42995 -10.42782 -10.42612 -10.42534 -10.35127
 Alpha  occ. eigenvalues --  -10.35019 -10.34900 -10.34548 -10.34446 -10.34342
 Alpha  occ. eigenvalues --  -10.34336 -10.34262 -10.34038 -10.33987 -10.33949
 Alpha  occ. eigenvalues --  -10.33091 -10.33078 -10.32998 -10.32838 -10.32349
 Alpha  occ. eigenvalues --  -10.32285 -10.32076 -10.31988 -10.31325 -10.29661
 Alpha  occ. eigenvalues --  -10.29288  -8.08512  -8.08251  -6.03370  -6.03094
 Alpha  occ. eigenvalues --   -6.02971  -6.02697  -6.02571  -6.02340  -1.19656
 Alpha  occ. eigenvalues --   -1.19393  -1.18405  -1.18323  -1.17755  -1.17453
 Alpha  occ. eigenvalues --   -1.06911  -1.06508  -1.03444  -1.00328  -0.98722
 Alpha  occ. eigenvalues --   -0.97207  -0.94933  -0.90556  -0.88876  -0.87159
 Alpha  occ. eigenvalues --   -0.85801  -0.85384  -0.84400  -0.82678  -0.82382
 Alpha  occ. eigenvalues --   -0.81249  -0.79524  -0.78234  -0.76994  -0.75724
 Alpha  occ. eigenvalues --   -0.75235  -0.74436  -0.70110  -0.68761  -0.67814
 Alpha  occ. eigenvalues --   -0.66801  -0.65755  -0.64728  -0.64384  -0.63279
 Alpha  occ. eigenvalues --   -0.62908  -0.60851  -0.59871  -0.59263  -0.59017
 Alpha  occ. eigenvalues --   -0.58047  -0.57802  -0.57404  -0.57143  -0.56800
 Alpha  occ. eigenvalues --   -0.56365  -0.56190  -0.55563  -0.55396  -0.54199
 Alpha  occ. eigenvalues --   -0.53990  -0.53807  -0.53361  -0.53183  -0.52510
 Alpha  occ. eigenvalues --   -0.51678  -0.51253  -0.51027  -0.50385  -0.50164
 Alpha  occ. eigenvalues --   -0.49870  -0.49596  -0.49349  -0.48931  -0.48462
 Alpha  occ. eigenvalues --   -0.48275  -0.47222  -0.46661  -0.45840  -0.45216
 Alpha  occ. eigenvalues --   -0.44265  -0.43736  -0.42125  -0.41418  -0.41144
 Alpha  occ. eigenvalues --   -0.41017  -0.40401  -0.39770  -0.38651  -0.37602
 Alpha  occ. eigenvalues --   -0.37475  -0.37000  -0.36858  -0.36114  -0.35009
 Alpha  occ. eigenvalues --   -0.33371  -0.31603  -0.31254  -0.25428
 Alpha virt. eigenvalues --   -0.07226  -0.00107   0.00496   0.02227   0.02972
 Alpha virt. eigenvalues --    0.05087   0.05870   0.06175   0.06606   0.06867
 Alpha virt. eigenvalues --    0.07176   0.07489   0.07539   0.07728   0.07931

 Mulliken charges:
               1
     1  C    0.480012
     2  C   -0.051091
     3  C    0.120248
     4  C    0.166923
     5  C    0.370437
     6  C   -0.556909
     7  C    0.106479
     8  C    0.013450
     9  C    0.250420
    10  C   -0.402212
    11  C    0.327681
    12  C    0.101332
    13  C   -0.483270
    14  C   -0.706295
    15  H    0.188540
    16  H    0.189069
    17  H    0.194348
    18  N    0.013911
    19  N   -0.094475
    20  O   -0.260624
    21  O   -0.269572
    22  O   -0.274941
    23  O   -0.155751
    24  C   -0.267150
    25  H    0.195297
    26  H    0.201818
    27  H    0.197336
    28  C   -0.283265
    29  H    0.193872
    30  H    0.193902
    31  H    0.200975
    32  C    0.443943
    33  C   -0.505570
    34  S   -0.420821
    35  C   -0.103238
    36  H    0.151761
    37  C    0.345326
    38  O   -0.110124
    39  C    0.889872
    40  C   -0.290174
    41  C    0.051486
    42  S   -0.296322
    43  H    0.182201
    44  H    0.160411
    45  H    0.165083
    46  C   -0.598689
    47  O   -0.121687
    48  C   -0.371169
    49  H    0.154597
    50  C   -0.303686
    51  H    0.184565
    52  H    0.157946
    53  H    0.178294
    54  H    0.155499
 Sum of Mulliken charges =  -0.00000

 Dipole moment (field-independent basis, Debye):
    X=              1.5996    Y=              0.0283    Z=              0.2874  Tot=              1.6255
 Quadrupole moment (field-independent basis, Debye-Ang):
   XX=           -215.5096   YY=           -223.8156   ZZ=           -204.7814
   XY=              7.5190   XZ=              9.7711   YZ=             13.5367

 Normal termination of Gaussian 16 at Wed Nov 18 01:21:36 2020.
