 Gaussian 16, Revision C.01,
 Gaussian 16:  ES64L-G16RevC.01  3-Jul-2019

 --------------------------------------
 # opt=modredundant wb97xd/6-311+g(d,p)
 --------------------------------------

 -----------
 NDI_-70.pdb
 -----------
 Symbolic Z-matrix:
 Charge =  0 Multiplicity = 1

 SCF Done:  E(RwB97XD) =  -2358.76666261     A.U. after   20 cycles
 SCF Done:  E(RwB97XD) =  -2358.77278493     A.U. after   17 cycles
 SCF Done:  E(RwB97XD) =  -2358.77349835     A.U. after   16 cycles
 SCF Done:  E(RwB97XD) =  -2358.77366679     A.U. after   17 cycles
 SCF Done:  E(RwB97XD) =  -2358.77374022     A.U. after   15 cycles
 SCF Done:  E(RwB97XD) =  -2358.77377017     A.U. after   14 cycles
 SCF Done:  E(RwB97XD) =  -2358.77372201     A.U. after   14 cycles
 SCF Done:  E(RwB97XD) =  -2358.77372811     A.U. after   13 cycles
 SCF Done:  E(RwB97XD) =  -2358.77377175     A.U. after   16 cycles
 SCF Done:  E(RwB97XD) =  -2358.77379933     A.U. after   16 cycles
 SCF Done:  E(RwB97XD) =  -2358.77381645     A.U. after   13 cycles
 SCF Done:  E(RwB97XD) =  -2358.77381806     A.U. after   13 cycles
 SCF Done:  E(RwB97XD) =  -2358.77381844     A.U. after   12 cycles
 SCF Done:  E(RwB97XD) =  -2358.77381861     A.U. after   10 cycles
 SCF Done:  E(RwB97XD) =  -2358.77381879     A.U. after   10 cycles
 SCF Done:  E(RwB97XD) =  -2358.77381892     A.U. after   11 cycles
 SCF Done:  E(RwB97XD) =  -2358.77381899     A.U. after   10 cycles
 SCF Done:  E(RwB97XD) =  -2358.77381906     A.U. after   11 cycles
 SCF Done:  E(RwB97XD) =  -2358.77381910     A.U. after    9 cycles
 SCF Done:  E(RwB97XD) =  -2358.77381913     A.U. after   10 cycles
 Optimization completed.
    -- Stationary point found.

                         Standard orientation:
 ---------------------------------------------------------------------
 Center     Atomic      Atomic             Coordinates (Angstroms)
 Number     Number       Type             X           Y           Z
 ---------------------------------------------------------------------
      1          6           0        3.047632   -2.859196    0.579000
      2          6           0        2.504046   -1.495273    0.343483
      3          6           0        3.373209   -0.429227    0.036537
      4          6           0        4.765305   -0.637701   -0.046434
      5          6           0        5.337335   -1.992630    0.185394
      6          6           0        1.157673   -1.274139    0.446444
      7          6           0        2.833658    0.854482   -0.190700
      8          6           0        1.431570    1.064385   -0.109857
      9          6           0        0.596021    0.011476    0.242877
     10          6           0        0.895439    2.411599   -0.475476
     11          6           0        3.209370    3.284588   -0.728958
     12          6           0        3.722410    1.911635   -0.489050
     13          6           0        5.078659    1.690600   -0.559881
     14          6           0        5.606362    0.409308   -0.340348
     15          1           0        6.672541    0.228070   -0.397712
     16          1           0        5.728005    2.527032   -0.787523
     17          1           0        0.507105   -2.099835    0.709734
     18          7           0        1.827185    3.436570   -0.690389
     19          7           0        4.430566   -3.013841    0.481422
     20          8           0        2.341216   -3.804425    0.844560
     21          8           0        6.526885   -2.202736    0.120857
     22          8           0        3.948574    4.216837   -0.953929
     23          8           0       -0.280449    2.653242   -0.603011
     24          6           0        1.265509    4.753195   -0.990828
     25          1           0        0.740258    4.727272   -1.946399
     26          1           0        0.555014    5.031161   -0.213395
     27          1           0        2.084779    5.464561   -1.032839
     28          6           0        4.945830   -4.362258    0.716417
     29          1           0        4.672083   -4.691167    1.719010
     30          1           0        4.511514   -5.053122   -0.006309
     31          1           0        6.025954   -4.332020    0.609616
     32          6           0       -0.858875    0.139008    0.451383
     33          6           0       -1.494611    0.775222    1.474338
     34         16           0       -1.965845   -0.670249   -0.592994
     35          6           0       -2.903937    0.628284    1.401173
     36          1           0       -0.970623    1.336869    2.234540
     37          6           0       -3.335940   -0.126124    0.332822
     38          8           0       -3.805420    1.142518    2.271016
     39          6           0       -4.701226   -0.437153   -0.034860
     40          6           0       -3.335514    2.081594    3.215352
     41          6           0       -5.125294   -1.217313   -1.088291
     42         16           0       -6.080347    0.173638    0.835845
     43          1           0       -4.213140    2.436276    3.753082
     44          1           0       -2.642574    1.617370    3.926005
     45          1           0       -2.844205    2.926265    2.720352
     46          6           0       -6.539657   -1.323067   -1.197386
     47          8           0       -4.211744   -1.797314   -1.903301
     48          6           0       -7.173657   -0.618172   -0.219820
     49          1           0       -7.058801   -1.890163   -1.956569
     50          6           0       -4.693419   -2.580043   -2.974871
     51          1           0       -8.237330   -0.525905   -0.061120
     52          1           0       -5.301408   -1.980544   -3.661281
     53          1           0       -3.814081   -2.947971   -3.500681
     54          1           0       -5.280170   -3.430950   -2.611646
 ---------------------------------------------------------------------

 The electronic state is 1-A.
 Alpha  occ. eigenvalues --  -89.04563 -89.04153 -19.28584 -19.28529 -19.25215
 Alpha  occ. eigenvalues --  -19.25148 -19.24896 -19.24829 -14.50757 -14.50463
 Alpha  occ. eigenvalues --  -10.43014 -10.42776 -10.42736 -10.42662 -10.35217
 Alpha  occ. eigenvalues --  -10.34904 -10.34810 -10.34654 -10.34594 -10.34401
 Alpha  occ. eigenvalues --  -10.34219 -10.34187 -10.34092 -10.34023 -10.34009
 Alpha  occ. eigenvalues --  -10.33114 -10.33072 -10.33047 -10.32721 -10.32350
 Alpha  occ. eigenvalues --  -10.32183 -10.32176 -10.31905 -10.31249 -10.29469
 Alpha  occ. eigenvalues --  -10.29213  -8.08575  -8.08176  -6.03430  -6.03031
 Alpha  occ. eigenvalues --   -6.03019  -6.02641  -6.02623  -6.02265  -1.19673
 Alpha  occ. eigenvalues --   -1.19497  -1.18296  -1.18212  -1.17767  -1.17557
 Alpha  occ. eigenvalues --   -1.06933  -1.06576  -1.03482  -1.00287  -0.98672
 Alpha  occ. eigenvalues --   -0.97209  -0.94981  -0.90540  -0.88924  -0.87113
 Alpha  occ. eigenvalues --   -0.85720  -0.85438  -0.84324  -0.82736  -0.82179
 Alpha  occ. eigenvalues --   -0.81474  -0.79349  -0.78207  -0.77059  -0.75777
 Alpha  occ. eigenvalues --   -0.75325  -0.74400  -0.70175  -0.68671  -0.67788
 Alpha  occ. eigenvalues --   -0.66824  -0.65569  -0.64833  -0.64578  -0.63157
 Alpha  occ. eigenvalues --   -0.62740  -0.60899  -0.59920  -0.59347  -0.59047
 Alpha  occ. eigenvalues --   -0.58016  -0.57813  -0.57444  -0.57059  -0.56716
 Alpha  occ. eigenvalues --   -0.56383  -0.56146  -0.55581  -0.55382  -0.54224
 Alpha  occ. eigenvalues --   -0.54082  -0.53598  -0.53495  -0.53136  -0.52439
 Alpha  occ. eigenvalues --   -0.51684  -0.51270  -0.51211  -0.50403  -0.50218
 Alpha  occ. eigenvalues --   -0.49711  -0.49622  -0.49218  -0.49000  -0.48456
 Alpha  occ. eigenvalues --   -0.48350  -0.47106  -0.46862  -0.45880  -0.45109
 Alpha  occ. eigenvalues --   -0.44139  -0.43639  -0.42154  -0.41464  -0.41095
 Alpha  occ. eigenvalues --   -0.40730  -0.40487  -0.39792  -0.38678  -0.37644
 Alpha  occ. eigenvalues --   -0.37513  -0.37134  -0.37026  -0.36134  -0.34804
 Alpha  occ. eigenvalues --   -0.33450  -0.31497  -0.31237  -0.25384
 Alpha virt. eigenvalues --   -0.07290  -0.00108   0.00567   0.02214   0.02813
 Alpha virt. eigenvalues --    0.04953   0.05946   0.06089   0.06730   0.06880
 Alpha virt. eigenvalues --    0.07343   0.07459   0.07586   0.07706   0.07872

 Mulliken charges:
               1
     1  C    0.462706
     2  C   -0.043016
     3  C    0.110621
     4  C    0.146223
     5  C    0.360235
     6  C   -0.808250
     7  C    0.143858
     8  C    0.157760
     9  C    0.572949
    10  C   -0.389022
    11  C    0.376677
    12  C    0.115025
    13  C   -0.574320
    14  C   -0.723721
    15  H    0.188542
    16  H    0.189347
    17  H    0.203775
    18  N   -0.078484
    19  N   -0.097425
    20  O   -0.257959
    21  O   -0.267862
    22  O   -0.272068
    23  O   -0.097512
    24  C   -0.278398
    25  H    0.201674
    26  H    0.191058
    27  H    0.201678
    28  C   -0.282413
    29  H    0.194308
    30  H    0.194064
    31  H    0.200993
    32  C    0.275643
    33  C   -0.532317
    34  S   -0.338568
    35  C   -0.340080
    36  H    0.144242
    37  C    0.417940
    38  O   -0.107568
    39  C    0.939854
    40  C   -0.301456
    41  C    0.049011
    42  S   -0.284464
    43  H    0.181203
    44  H    0.154652
    45  H    0.172947
    46  C   -0.513707
    47  O   -0.118437
    48  C   -0.368308
    49  H    0.154595
    50  C   -0.303414
    51  H    0.184637
    52  H    0.158542
    53  H    0.178804
    54  H    0.155208
 Sum of Mulliken charges =  -0.00000

 Dipole moment (field-independent basis, Debye):
    X=             -1.3494    Y=              0.1450    Z=              0.0476  Tot=              1.3580
 Quadrupole moment (field-independent basis, Debye-Ang):
   XX=           -217.6839   YY=           -220.6299   ZZ=           -205.5713
   XY=              1.1786   XZ=              7.8333   YZ=             15.8444

 Normal termination of Gaussian 16 at Tue Nov 17 22:17:23 2020.
