 Gaussian 16, Revision C.01,
 Gaussian 16:  ES64L-G16RevC.01  3-Jul-2019

 -------------------------------------
 # opt=modredundant b3lyp/6-311+g(d,p)
 -------------------------------------

 -----------
 NDI_-80.pdb
 -----------
 Symbolic Z-matrix:
 Charge =  0 Multiplicity = 1

 SCF Done:  E(RB3LYP) =  -2359.33107368     A.U. after   17 cycles
 SCF Done:  E(RB3LYP) =  -2359.33431269     A.U. after   15 cycles
 SCF Done:  E(RB3LYP) =  -2359.33480949     A.U. after   14 cycles
 SCF Done:  E(RB3LYP) =  -2359.33482992     A.U. after   13 cycles
 SCF Done:  E(RB3LYP) =  -2359.33486924     A.U. after   12 cycles
 SCF Done:  E(RB3LYP) =  -2359.33487225     A.U. after   12 cycles
 SCF Done:  E(RB3LYP) =  -2359.33487388     A.U. after   12 cycles
 SCF Done:  E(RB3LYP) =  -2359.33487414     A.U. after   11 cycles
 SCF Done:  E(RB3LYP) =  -2359.33487421     A.U. after   10 cycles
 Optimization completed.
    -- Stationary point found.

                         Standard orientation:
 ---------------------------------------------------------------------
 Center     Atomic      Atomic             Coordinates (Angstroms)
 Number     Number       Type             X           Y           Z
 ---------------------------------------------------------------------
      1          6           0        3.016912   -2.875098    0.530328
      2          6           0        2.494638   -1.496759    0.332149
      3          6           0        3.378336   -0.436027    0.035002
      4          6           0        4.767752   -0.666209   -0.079000
      5          6           0        5.324223   -2.031788    0.124119
      6          6           0        1.145190   -1.253754    0.453024
      7          6           0        2.851279    0.870267   -0.157060
      8          6           0        1.452671    1.104096   -0.033314
      9          6           0        0.597775    0.046388    0.302994
     10          6           0        0.934054    2.479515   -0.301357
     11          6           0        3.258328    3.297226   -0.707216
     12          6           0        3.751838    1.916272   -0.475295
     13          6           0        5.109785    1.668414   -0.582935
     14          6           0        5.621925    0.378497   -0.383017
     15          1           0        6.683082    0.180795   -0.465858
     16          1           0        5.765763    2.494508   -0.826779
     17          1           0        0.485921   -2.078463    0.692611
     18          7           0        1.875729    3.476779   -0.618141
     19          7           0        4.402589   -3.049054    0.418776
     20          8           0        2.295278   -3.822734    0.775970
     21          8           0        6.515624   -2.261747    0.039316
     22          8           0        4.009287    4.219744   -0.967413
     23          8           0       -0.243545    2.773706   -0.271365
     24          6           0        1.326726    4.816923   -0.873686
     25          1           0        0.629625    4.775359   -1.710580
     26          1           0        0.786982    5.168679    0.005680
     27          1           0        2.156904    5.478179   -1.100298
     28          6           0        4.904580   -4.416030    0.622302
     29          1           0        4.613626   -4.769779    1.611362
     30          1           0        4.471099   -5.082714   -0.123623
     31          1           0        5.985499   -4.392349    0.527884
     32          6           0       -0.862432    0.171606    0.500211
     33          6           0       -1.527590    0.627791    1.606172
     34         16           0       -1.957349   -0.517715   -0.663800
     35          6           0       -2.933757    0.460005    1.506889
     36          1           0       -1.024459    1.077605    2.449691
     37          6           0       -3.357304   -0.142786    0.331766
     38          8           0       -3.855053    0.825223    2.441364
     39          6           0       -4.707164   -0.420232   -0.089463
     40          6           0       -3.403608    1.560311    3.573032
     41          6           0       -5.122809   -1.052996   -1.252420
     42         16           0       -6.116118    0.037678    0.858399
     43          1           0       -4.294756    1.792412    4.153797
     44          1           0       -2.718984    0.963836    4.185491
     45          1           0       -2.912591    2.490494    3.269031
     46          6           0       -6.535188   -1.168414   -1.382717
     47          8           0       -4.190590   -1.491996   -2.144033
     48          6           0       -7.193958   -0.622571   -0.316861
     49          1           0       -7.037713   -1.631705   -2.219265
     50          6           0       -4.646301   -2.167181   -3.310443
     51          1           0       -8.259340   -0.575916   -0.151995
     52          1           0       -5.273950   -1.514124   -3.925867
     53          1           0       -3.751530   -2.437952   -3.868426
     54          1           0       -5.201355   -3.074722   -3.050806
 ---------------------------------------------------------------------

 The electronic state is 1-A.
 Alpha  occ. eigenvalues --  -88.87830 -88.87531 -19.16308 -19.16236 -19.12786
 Alpha  occ. eigenvalues --  -19.12716 -19.12429 -19.12341 -14.38920 -14.38612
 Alpha  occ. eigenvalues --  -10.31409 -10.31195 -10.31088 -10.31030 -10.23857
 Alpha  occ. eigenvalues --  -10.23801 -10.23744 -10.23392 -10.23319 -10.23318
 Alpha  occ. eigenvalues --  -10.23250 -10.23161 -10.22813 -10.22744 -10.22730
 Alpha  occ. eigenvalues --  -10.21779 -10.21775 -10.21706 -10.21482 -10.21270
 Alpha  occ. eigenvalues --  -10.21066 -10.21030 -10.20868 -10.20037 -10.18346
 Alpha  occ. eigenvalues --  -10.18157  -7.96373  -7.96086  -5.92698  -5.92396
 Alpha  occ. eigenvalues --   -5.92306  -5.92008  -5.91915  -5.91655  -1.09023
 Alpha  occ. eigenvalues --   -1.08806  -1.07832  -1.07746  -1.07222  -1.06969
 Alpha  occ. eigenvalues --   -0.96589  -0.96215  -0.92970  -0.89793  -0.88280
 Alpha  occ. eigenvalues --   -0.86838  -0.84760  -0.80468  -0.78904  -0.77218
 Alpha  occ. eigenvalues --   -0.75917  -0.75526  -0.74614  -0.72956  -0.72505
 Alpha  occ. eigenvalues --   -0.71856  -0.69886  -0.68668  -0.67481  -0.66308
 Alpha  occ. eigenvalues --   -0.65836  -0.64975  -0.60857  -0.59521  -0.58594
 Alpha  occ. eigenvalues --   -0.57739  -0.56541  -0.55690  -0.55617  -0.54160
 Alpha  occ. eigenvalues --   -0.53818  -0.52036  -0.50539  -0.50159  -0.50021
 Alpha  occ. eigenvalues --   -0.49260  -0.48943  -0.48811  -0.48159  -0.47908
 Alpha  occ. eigenvalues --   -0.47716  -0.47460  -0.46911  -0.46587  -0.45608
 Alpha  occ. eigenvalues --   -0.45328  -0.44977  -0.44920  -0.44600  -0.44060
 Alpha  occ. eigenvalues --   -0.42941  -0.42794  -0.42375  -0.42076  -0.41823
 Alpha  occ. eigenvalues --   -0.41481  -0.41298  -0.40996  -0.40772  -0.40146
 Alpha  occ. eigenvalues --   -0.39909  -0.38937  -0.38364  -0.37795  -0.36989
 Alpha  occ. eigenvalues --   -0.35843  -0.35579  -0.33805  -0.33311  -0.33230
 Alpha  occ. eigenvalues --   -0.32942  -0.32654  -0.31343  -0.30487  -0.29972
 Alpha  occ. eigenvalues --   -0.29440  -0.29336  -0.28898  -0.28577  -0.27205
 Alpha  occ. eigenvalues --   -0.26626  -0.24239  -0.23964  -0.18728
 Alpha virt. eigenvalues --   -0.13465  -0.07209  -0.06148  -0.05052  -0.04385
 Alpha virt. eigenvalues --   -0.01094  -0.00113  -0.00059   0.00135   0.00529
 Alpha virt. eigenvalues --    0.00779   0.00879   0.01001   0.01167   0.01768

 Mulliken charges:
               1
     1  C    0.389353
     2  C    0.015832
     3  C    0.151464
     4  C    0.181067
     5  C    0.243683
     6  C   -0.713944
     7  C    0.214396
     8  C    0.125197
     9  C    0.657708
    10  C   -0.415270
    11  C    0.301504
    12  C    0.123765
    13  C   -0.519346
    14  C   -0.631083
    15  H    0.161507
    16  H    0.162634
    17  H    0.171309
    18  N   -0.164592
    19  N   -0.148065
    20  O   -0.269034
    21  O   -0.268874
    22  O   -0.271459
    23  O   -0.088033
    24  C   -0.207179
    25  H    0.179376
    26  H    0.175161
    27  H    0.184251
    28  C   -0.197966
    29  H    0.175351
    30  H    0.175918
    31  H    0.183235
    32  C    0.201942
    33  C   -0.601095
    34  S   -0.255632
    35  C   -0.363750
    36  H    0.112809
    37  C    0.455418
    38  O   -0.129299
    39  C    0.946238
    40  C   -0.233286
    41  C    0.035940
    42  S   -0.256572
    43  H    0.164586
    44  H    0.142464
    45  H    0.154237
    46  C   -0.505328
    47  O   -0.141825
    48  C   -0.303934
    49  H    0.128940
    50  C   -0.237065
    51  H    0.157461
    52  H    0.143926
    53  H    0.163028
    54  H    0.142932
 Sum of Mulliken charges =  -0.00000

 Dipole moment (field-independent basis, Debye):
    X=             -1.6992    Y=             -0.0608    Z=              0.0700  Tot=              1.7017
 Quadrupole moment (field-independent basis, Debye-Ang):
   XX=           -221.4847   YY=           -227.2480   ZZ=           -202.5701
   XY=              0.8827   XZ=              8.7057   YZ=             14.1595

 Normal termination of Gaussian 16 at Sun Nov 29 12:02:21 2020.
