 Gaussian 16, Revision C.01,
 Gaussian 16:  ES64L-G16RevC.01  3-Jul-2019

 -------------------------------------
 # opt=modredundant b3lyp/6-311+g(d,p)
 -------------------------------------

 -----------
 NDI_125.pdb
 -----------
 Symbolic Z-matrix:
 Charge =  0 Multiplicity = 1

 SCF Done:  E(RB3LYP) =  -2359.33083270     A.U. after   19 cycles
 SCF Done:  E(RB3LYP) =  -2359.33275706     A.U. after   18 cycles
 SCF Done:  E(RB3LYP) =  -2359.33550621     A.U. after   16 cycles
 SCF Done:  E(RB3LYP) =  -2359.33563424     A.U. after   14 cycles
 SCF Done:  E(RB3LYP) =  -2359.33580933     A.U. after   13 cycles
 SCF Done:  E(RB3LYP) =  -2359.33584231     A.U. after   12 cycles
 SCF Done:  E(RB3LYP) =  -2359.33585402     A.U. after   11 cycles
 SCF Done:  E(RB3LYP) =  -2359.33585535     A.U. after   11 cycles
 SCF Done:  E(RB3LYP) =  -2359.33585608     A.U. after   10 cycles
 SCF Done:  E(RB3LYP) =  -2359.33585618     A.U. after   10 cycles
 SCF Done:  E(RB3LYP) =  -2359.33585623     A.U. after    9 cycles
 Optimization completed.
    -- Stationary point found.

                         Standard orientation:
 ---------------------------------------------------------------------
 Center     Atomic      Atomic             Coordinates (Angstroms)
 Number     Number       Type             X           Y           Z
 ---------------------------------------------------------------------
      1          6           0        3.432570   -2.742481    0.411850
      2          6           0        2.720072   -1.468416    0.130908
      3          6           0        3.420307   -0.240801    0.146436
      4          6           0        4.802383   -0.203956    0.431588
      5          6           0        5.541620   -1.458873    0.735856
      6          6           0        1.369662   -1.485592   -0.127394
      7          6           0        2.717082    0.957789   -0.155154
      8          6           0        1.320219    0.924129   -0.429516
      9          6           0        0.630050   -0.298442   -0.374451
     10          6           0        0.669692    2.172993   -0.920025
     11          6           0        2.779959    3.448892   -0.533331
     12          6           0        3.446636    2.171827   -0.177521
     13          6           0        4.801158    2.186874    0.113797
     14          6           0        5.482402    1.002045    0.422015
     15          1           0        6.541593    1.008839    0.645416
     16          1           0        5.320790    3.136448    0.090659
     17          1           0        0.847630   -2.433530   -0.099281
     18          7           0        1.439232    3.352084   -0.911892
     19          7           0        4.799800   -2.651588    0.700080
     20          8           0        2.875554   -3.824499    0.401972
     21          8           0        6.729164   -1.461466    0.999325
     22          8           0        3.367736    4.515886   -0.519318
     23          8           0       -0.475502    2.223788   -1.322773
     24          6           0        0.748820    4.570184   -1.360517
     25          1           0        0.398798    4.439229   -2.384463
     26          1           0       -0.116222    4.759140   -0.724489
     27          1           0        1.453676    5.393152   -1.298792
     28          6           0        5.489749   -3.917735    0.986985
     29          1           0        5.014195   -4.410822    1.834852
     30          1           0        5.422756   -4.578165    0.122024
     31          1           0        6.526902   -3.689469    1.210820
     32          6           0       -0.823627   -0.473595   -0.509639
     33          6           0       -1.467531   -1.291056   -1.408471
     34         16           0       -1.947555    0.256840    0.599899
     35          6           0       -2.871744   -1.305007   -1.228255
     36          1           0       -0.946239   -1.832715   -2.184847
     37          6           0       -3.317826   -0.528158   -0.164435
     38          8           0       -3.776688   -1.984783   -1.984011
     39          6           0       -4.668505   -0.368554    0.306023
     40          6           0       -3.282302   -2.876029   -2.977812
     41          6           0       -5.112145    0.402864    1.372730
     42         16           0       -6.043591   -1.172000   -0.441807
     43          1           0       -4.158906   -3.342119   -3.424305
     44          1           0       -2.726053   -2.335956   -3.751071
     45          1           0       -2.644508   -3.647602   -2.534098
     46          6           0       -6.518002    0.353742    1.584203
     47          8           0       -4.210240    1.112486    2.103551
     48          6           0       -7.143363   -0.457432    0.678899
     49          1           0       -7.039807    0.889021    2.363969
     50          6           0       -4.698155    1.924045    3.166234
     51          1           0       -8.197845   -0.674957    0.605994
     52          1           0       -5.195710    1.317394    3.929974
     53          1           0       -3.823605    2.405369    3.600422
     54          1           0       -5.387607    2.688993    2.794431
 ---------------------------------------------------------------------

 The electronic state is 1-A.
 Alpha  occ. eigenvalues --  -88.87944 -88.87914 -19.16735 -19.16642 -19.12569
 Alpha  occ. eigenvalues --  -19.12532 -19.12011 -19.11885 -14.38727 -14.38218
 Alpha  occ. eigenvalues --  -10.31181 -10.31010 -10.30645 -10.30613 -10.24255
 Alpha  occ. eigenvalues --  -10.24231 -10.23643 -10.23638 -10.23551 -10.23049
 Alpha  occ. eigenvalues --  -10.22816 -10.22805 -10.22470 -10.22462 -10.22307
 Alpha  occ. eigenvalues --  -10.21771 -10.21658 -10.21614 -10.21382 -10.21322
 Alpha  occ. eigenvalues --  -10.21289 -10.21126 -10.20716 -10.20502 -10.18803
 Alpha  occ. eigenvalues --  -10.18552  -7.96498  -7.96467  -5.92808  -5.92792
 Alpha  occ. eigenvalues --   -5.92419  -5.92400  -5.92066  -5.92003  -1.08811
 Alpha  occ. eigenvalues --   -1.08381  -1.08280  -1.08171  -1.07007  -1.06532
 Alpha  occ. eigenvalues --   -0.96372  -0.95837  -0.92648  -0.90049  -0.88519
 Alpha  occ. eigenvalues --   -0.86750  -0.84439  -0.80447  -0.78599  -0.77423
 Alpha  occ. eigenvalues --   -0.76222  -0.75274  -0.74991  -0.73001  -0.72584
 Alpha  occ. eigenvalues --   -0.71596  -0.70252  -0.68772  -0.67214  -0.66019
 Alpha  occ. eigenvalues --   -0.65589  -0.64894  -0.60853  -0.59744  -0.58602
 Alpha  occ. eigenvalues --   -0.57520  -0.56687  -0.56031  -0.55190  -0.54553
 Alpha  occ. eigenvalues --   -0.53811  -0.51797  -0.50317  -0.49945  -0.49769
 Alpha  occ. eigenvalues --   -0.49446  -0.48735  -0.48616  -0.48497  -0.48231
 Alpha  occ. eigenvalues --   -0.47919  -0.47250  -0.46676  -0.46428  -0.45750
 Alpha  occ. eigenvalues --   -0.45353  -0.44999  -0.44775  -0.44435  -0.43981
 Alpha  occ. eigenvalues --   -0.42832  -0.42476  -0.42255  -0.42049  -0.41755
 Alpha  occ. eigenvalues --   -0.41415  -0.41301  -0.41244  -0.40633  -0.39980
 Alpha  occ. eigenvalues --   -0.39576  -0.38975  -0.38520  -0.37779  -0.37328
 Alpha  occ. eigenvalues --   -0.36180  -0.35704  -0.34072  -0.33677  -0.33466
 Alpha  occ. eigenvalues --   -0.33213  -0.32300  -0.31079  -0.30183  -0.29827
 Alpha  occ. eigenvalues --   -0.29324  -0.28976  -0.28727  -0.28173  -0.27486
 Alpha  occ. eigenvalues --   -0.26288  -0.24599  -0.24118  -0.19054
 Alpha virt. eigenvalues --   -0.13217  -0.07088  -0.06283  -0.04846  -0.04044
 Alpha virt. eigenvalues --   -0.00898  -0.00392  -0.00254   0.00064   0.00588
 Alpha virt. eigenvalues --    0.00667   0.01042   0.01194   0.01367   0.01860

 Mulliken charges:
               1
     1  C    0.334265
     2  C   -0.040599
     3  C    0.169924
     4  C    0.231118
     5  C    0.224337
     6  C   -0.369137
     7  C    0.206699
     8  C    0.008163
     9  C    0.293375
    10  C   -0.329847
    11  C    0.262290
    12  C    0.111818
    13  C   -0.450037
    14  C   -0.615781
    15  H    0.160386
    16  H    0.161765
    17  H    0.164127
    18  N   -0.113745
    19  N   -0.141744
    20  O   -0.275710
    21  O   -0.270977
    22  O   -0.277686
    23  O   -0.188043
    24  C   -0.179495
    25  H    0.177205
    26  H    0.177999
    27  H    0.182896
    28  C   -0.197078
    29  H    0.175117
    30  H    0.173950
    31  H    0.182647
    32  C    0.412456
    33  C   -0.543424
    34  S   -0.446282
    35  C   -0.125356
    36  H    0.124831
    37  C    0.443464
    38  O   -0.131077
    39  C    0.852468
    40  C   -0.228424
    41  C    0.016265
    42  S   -0.275774
    43  H    0.165627
    44  H    0.145916
    45  H    0.151432
    46  C   -0.581197
    47  O   -0.140981
    48  C   -0.292820
    49  H    0.130224
    50  C   -0.237389
    51  H    0.158834
    52  H    0.143372
    53  H    0.164357
    54  H    0.145279
 Sum of Mulliken charges =  -0.00000

 Dipole moment (field-independent basis, Debye):
    X=             -2.9487    Y=             -0.4360    Z=              0.2844  Tot=              2.9943
 Quadrupole moment (field-independent basis, Debye-Ang):
   XX=           -217.3762   YY=           -225.7869   ZZ=           -206.7946
   XY=             -7.2497   XZ=            -11.1580   YZ=             14.1349

 Normal termination of Gaussian 16 at Sun Nov 29 14:36:04 2020.
