 Gaussian 16, Revision C.01,
 Gaussian 16:  ES64L-G16RevC.01  3-Jul-2019

 -------------------------------------
 # opt=modredundant b3lyp/6-311+g(d,p)
 -------------------------------------

 ------------
 NDI_-175.pdb
 ------------
 Symbolic Z-matrix:
 Charge =  0 Multiplicity = 1

 SCF Done:  E(RB3LYP) =  -2359.29232129     A.U. after   18 cycles
 SCF Done:  E(RB3LYP) =  -2359.32223830     A.U. after   17 cycles
 SCF Done:  E(RB3LYP) =  -2359.33126585     A.U. after   16 cycles
 SCF Done:  E(RB3LYP) =  -2359.33315751     A.U. after   14 cycles
 SCF Done:  E(RB3LYP) =  -2359.33356445     A.U. after   13 cycles
 SCF Done:  E(RB3LYP) =  -2359.33361943     A.U. after   12 cycles
 SCF Done:  E(RB3LYP) =  -2359.33367047     A.U. after   14 cycles
 SCF Done:  E(RB3LYP) =  -2359.33371664     A.U. after   13 cycles
 SCF Done:  E(RB3LYP) =  -2359.33377527     A.U. after   16 cycles
 SCF Done:  E(RB3LYP) =  -2359.33383775     A.U. after   14 cycles
 SCF Done:  E(RB3LYP) =  -2359.33388149     A.U. after   16 cycles
 SCF Done:  E(RB3LYP) =  -2359.33385443     A.U. after   14 cycles
 SCF Done:  E(RB3LYP) =  -2359.32710598     A.U. after   18 cycles
 SCF Done:  E(RB3LYP) =  -2359.33330826     A.U. after   14 cycles
 SCF Done:  E(RB3LYP) =  -2359.33388706     A.U. after    9 cycles
 SCF Done:  E(RB3LYP) =  -2359.33390413     A.U. after   12 cycles
 SCF Done:  E(RB3LYP) =  -2359.33390602     A.U. after   12 cycles
 SCF Done:  E(RB3LYP) =  -2359.33390640     A.U. after   11 cycles
 SCF Done:  E(RB3LYP) =  -2359.33390648     A.U. after   10 cycles
 Optimization completed.
    -- Stationary point found.

                         Standard orientation:
 ---------------------------------------------------------------------
 Center     Atomic      Atomic             Coordinates (Angstroms)
 Number     Number       Type             X           Y           Z
 ---------------------------------------------------------------------
      1          6           0       -3.486441   -2.687774    0.139806
      2          6           0       -2.771690   -1.391094    0.002011
      3          6           0       -3.477358   -0.169707    0.084872
      4          6           0       -4.869166   -0.160248    0.291242
      5          6           0       -5.618988   -1.437532    0.421767
      6          6           0       -1.421369   -1.395850   -0.198247
      7          6           0       -2.742487    1.037327   -0.058141
      8          6           0       -1.323858    1.021556   -0.261670
      9          6           0       -0.615908   -0.215475   -0.328238
     10          6           0       -0.677222    2.325419   -0.505872
     11          6           0       -2.815961    3.554633   -0.172153
     12          6           0       -3.479951    2.247271    0.007260
     13          6           0       -4.853045    2.240574    0.220836
     14          6           0       -5.555215    1.043214    0.365133
     15          1           0       -6.625503    1.033115    0.524997
     16          1           0       -5.363588    3.194289    0.264169
     17          1           0       -0.960135   -2.369160   -0.207495
     18          7           0       -1.451481    3.495799   -0.450674
     19          7           0       -4.870391   -2.624939    0.324836
     20          8           0       -2.916338   -3.764179    0.105749
     21          8           0       -6.821620   -1.466978    0.602033
     22          8           0       -3.412330    4.616003   -0.098963
     23          8           0        0.511753    2.448960   -0.759952
     24          6           0       -0.733385    4.755246   -0.691971
     25          1           0        0.057270    4.879033    0.048395
     26          1           0       -0.276553    4.735488   -1.681346
     27          1           0       -1.453705    5.563797   -0.618254
     28          6           0       -5.571019   -3.910419    0.454785
     29          1           0       -5.392854   -4.516012   -0.433859
     30          1           0       -5.192302   -4.451887    1.322256
     31          1           0       -6.630151   -3.703208    0.569700
     32          6           0        0.822076   -0.494076   -0.416140
     33          6           0        1.339679   -1.786120   -0.575910
     34         16           0        2.150141    0.606507   -0.060953
     35          6           0        2.721814   -1.885687   -0.406151
     36          1           0        0.741476   -2.642687   -0.837812
     37          6           0        3.335700   -0.675019   -0.073731
     38          8           0        3.477974   -3.010261   -0.519336
     39          6           0        4.731433   -0.449322    0.168840
     40          6           0        2.845430   -4.200714   -0.980472
     41          6           0        5.357547    0.753501    0.490507
     42         16           0        5.938382   -1.731347    0.099140
     43          1           0        3.631404   -4.950922   -1.044789
     44          1           0        2.078100   -4.538885   -0.276544
     45          1           0        2.400227   -4.051021   -1.969389
     46          6           0        6.763053    0.647584    0.673143
     47          8           0        4.615654    1.881613    0.593634
     48          6           0        7.206274   -0.633893    0.494055
     49          1           0        7.412524    1.473181    0.924362
     50          6           0        5.272046    3.094162    0.953788
     51          1           0        8.220247   -0.995412    0.573051
     52          1           0        6.021908    3.372311    0.206518
     53          1           0        4.493487    3.853712    0.985880
     54          1           0        5.742193    3.009072    1.938616
 ---------------------------------------------------------------------

 The electronic state is 1-A.
 Alpha  occ. eigenvalues --  -88.88724 -88.88273 -19.17444 -19.17185 -19.12223
 Alpha  occ. eigenvalues --  -19.12187 -19.11519 -19.11252 -14.38389 -14.37783
 Alpha  occ. eigenvalues --  -10.30767 -10.30674 -10.30119 -10.29822 -10.25294
 Alpha  occ. eigenvalues --  -10.24729 -10.24091 -10.24063 -10.23916 -10.22712
 Alpha  occ. eigenvalues --  -10.22502 -10.22378 -10.22121 -10.22042 -10.21951
 Alpha  occ. eigenvalues --  -10.21777 -10.21764 -10.21467 -10.21441 -10.21135
 Alpha  occ. eigenvalues --  -10.20877 -10.20514 -10.20450 -10.20423 -10.19345
 Alpha  occ. eigenvalues --  -10.19305  -7.97277  -7.96724  -5.93585  -5.93196
 Alpha  occ. eigenvalues --   -5.93046  -5.92846  -5.92629  -5.92278  -1.09090
 Alpha  occ. eigenvalues --   -1.08749  -1.08455  -1.07957  -1.06639  -1.05944
 Alpha  occ. eigenvalues --   -0.96015  -0.95385  -0.91989  -0.90466  -0.88910
 Alpha  occ. eigenvalues --   -0.86351  -0.83819  -0.80470  -0.78037  -0.77717
 Alpha  occ. eigenvalues --   -0.76676  -0.75630  -0.74911  -0.73450  -0.72281
 Alpha  occ. eigenvalues --   -0.71438  -0.70736  -0.68870  -0.66843  -0.65664
 Alpha  occ. eigenvalues --   -0.65310  -0.64663  -0.60988  -0.60128  -0.58551
 Alpha  occ. eigenvalues --   -0.57369  -0.56770  -0.56484  -0.55404  -0.54673
 Alpha  occ. eigenvalues --   -0.53598  -0.51362  -0.50147  -0.49892  -0.49324
 Alpha  occ. eigenvalues --   -0.49205  -0.49050  -0.48725  -0.48697  -0.48293
 Alpha  occ. eigenvalues --   -0.48158  -0.47235  -0.46548  -0.46075  -0.45937
 Alpha  occ. eigenvalues --   -0.45583  -0.44928  -0.44269  -0.44008  -0.43415
 Alpha  occ. eigenvalues --   -0.43107  -0.42490  -0.42272  -0.41933  -0.41621
 Alpha  occ. eigenvalues --   -0.41573  -0.41212  -0.40968  -0.40405  -0.39735
 Alpha  occ. eigenvalues --   -0.39472  -0.39100  -0.38908  -0.37481  -0.37086
 Alpha  occ. eigenvalues --   -0.36450  -0.36218  -0.34543  -0.34246  -0.33686
 Alpha  occ. eigenvalues --   -0.33173  -0.31734  -0.30648  -0.30367  -0.29563
 Alpha  occ. eigenvalues --   -0.29186  -0.28593  -0.28507  -0.27636  -0.27222
 Alpha  occ. eigenvalues --   -0.25910  -0.24974  -0.24584  -0.19692
 Alpha virt. eigenvalues --   -0.12652  -0.07794  -0.06215  -0.04207  -0.03702
 Alpha virt. eigenvalues --   -0.00848  -0.00467  -0.00333  -0.00067   0.00410
 Alpha virt. eigenvalues --    0.00969   0.01128   0.01499   0.01999   0.02013

 Mulliken charges:
               1
     1  C    0.328629
     2  C   -0.065723
     3  C    0.159941
     4  C    0.141696
     5  C    0.286593
     6  C   -0.024771
     7  C    0.092726
     8  C    0.126914
     9  C    0.435399
    10  C   -0.115297
    11  C    0.238169
    12  C    0.103137
    13  C   -0.471873
    14  C   -0.610137
    15  H    0.157184
    16  H    0.160844
    17  H    0.158469
    18  N   -0.165008
    19  N   -0.145557
    20  O   -0.288439
    21  O   -0.265504
    22  O   -0.279394
    23  O   -0.221265
    24  C   -0.189038
    25  H    0.173852
    26  H    0.175562
    27  H    0.183590
    28  C   -0.199087
    29  H    0.172792
    30  H    0.173639
    31  H    0.182745
    32  C   -0.203148
    33  C   -0.242542
    34  S   -0.562339
    35  C   -0.238900
    36  H    0.129058
    37  C    0.570330
    38  O   -0.136564
    39  C    0.782189
    40  C   -0.226549
    41  C   -0.064526
    42  S   -0.256697
    43  H    0.168385
    44  H    0.149684
    45  H    0.150900
    46  C   -0.540985
    47  O   -0.111161
    48  C   -0.292909
    49  H    0.132893
    50  C   -0.243347
    51  H    0.162737
    52  H    0.146295
    53  H    0.170983
    54  H    0.145425
 Sum of Mulliken charges =  -0.00000

 Dipole moment (field-independent basis, Debye):
    X=              5.5633    Y=             -0.8335    Z=              0.1104  Tot=              5.6265
 Quadrupole moment (field-independent basis, Debye-Ang):
   XX=           -210.5213   YY=           -214.1157   ZZ=           -221.7964
   XY=             13.2273   XZ=              6.9025   YZ=              6.9743

 Normal termination of Gaussian 16 at Sun Nov 29 15:39:30 2020.
