 Gaussian 16, Revision C.01,
 Gaussian 16:  ES64L-G16RevC.01  3-Jul-2019

 -------------------------------------
 # opt=modredundant b3lyp/6-311+g(d,p)
 -------------------------------------

 ------------
 NDI_-130.pdb
 ------------
 Symbolic Z-matrix:
 Charge =  0 Multiplicity = 1

 SCF Done:  E(RB3LYP) =  -2359.32673119     A.U. after   17 cycles
 SCF Done:  E(RB3LYP) =  -2359.32719514     A.U. after   18 cycles
 SCF Done:  E(RB3LYP) =  -2359.33324449     A.U. after   17 cycles
 SCF Done:  E(RB3LYP) =  -2359.33436275     A.U. after   15 cycles
 SCF Done:  E(RB3LYP) =  -2359.33493415     A.U. after   16 cycles
 SCF Done:  E(RB3LYP) =  -2359.33537578     A.U. after   17 cycles
 SCF Done:  E(RB3LYP) =  -2359.33561412     A.U. after   13 cycles
 SCF Done:  E(RB3LYP) =  -2359.33573774     A.U. after   13 cycles
 SCF Done:  E(RB3LYP) =  -2359.33575792     A.U. after   12 cycles
 SCF Done:  E(RB3LYP) =  -2359.33576527     A.U. after   12 cycles
 SCF Done:  E(RB3LYP) =  -2359.33576512     A.U. after   12 cycles
 SCF Done:  E(RB3LYP) =  -2359.33576632     A.U. after   11 cycles
 SCF Done:  E(RB3LYP) =  -2359.33576634     A.U. after   12 cycles
 SCF Done:  E(RB3LYP) =  -2359.33576652     A.U. after   11 cycles
 Optimization completed.
    -- Stationary point found.

                         Standard orientation:
 ---------------------------------------------------------------------
 Center     Atomic      Atomic             Coordinates (Angstroms)
 Number     Number       Type             X           Y           Z
 ---------------------------------------------------------------------
      1          6           0       -3.406150   -2.746618    0.429751
      2          6           0       -2.705505   -1.466081    0.148255
      3          6           0       -3.416408   -0.244394    0.163548
      4          6           0       -4.800147   -0.221282    0.440376
      5          6           0       -5.530921   -1.484267    0.730955
      6          6           0       -1.359092   -1.473831   -0.126381
      7          6           0       -2.722430    0.959780   -0.138004
      8          6           0       -1.324129    0.939208   -0.410438
      9          6           0       -0.625814   -0.281150   -0.371774
     10          6           0       -0.687215    2.193690   -0.902539
     11          6           0       -2.815599    3.446241   -0.539049
     12          6           0       -3.465749    2.165430   -0.169035
     13          6           0       -4.821534    2.167961    0.118318
     14          6           0       -5.492471    0.977944    0.426744
     15          1           0       -6.553159    0.974178    0.642842
     16          1           0       -5.350539    3.112115    0.087414
     17          1           0       -0.832138   -2.419070   -0.103696
     18          7           0       -1.475509    3.360276   -0.921374
     19          7           0       -4.779740   -2.671037    0.689863
     20          8           0       -2.832830   -3.819987    0.452810
     21          8           0       -6.720014   -1.498591    0.987107
     22          8           0       -3.415383    4.506819   -0.534395
     23          8           0        0.466451    2.262901   -1.278692
     24          6           0       -0.798410    4.582774   -1.378030
     25          1           0        0.052040    4.798402   -0.730776
     26          1           0       -0.428867    4.440788   -2.393513
     27          1           0       -1.518583    5.393949   -1.342132
     28          6           0       -5.459929   -3.943796    0.970489
     29          1           0       -5.327809   -4.622711    0.128099
     30          1           0       -5.026297   -4.406864    1.857369
     31          1           0       -6.512458   -3.732040    1.129292
     32          6           0        0.826497   -0.457355   -0.508196
     33          6           0        1.458431   -1.339734   -1.355845
     34         16           0        1.964310    0.313230    0.559636
     35          6           0        2.860912   -1.365991   -1.176475
     36          1           0        0.927569   -1.921489   -2.095905
     37          6           0        3.320036   -0.537495   -0.156865
     38          8           0        3.751905   -2.121182   -1.875018
     39          6           0        4.673434   -0.372677    0.302244
     40          6           0        3.267663   -2.870682   -2.984249
     41          6           0        5.130579    0.450073    1.324555
     42         16           0        6.035978   -1.232554   -0.405116
     43          1           0        4.139226   -3.354516   -3.421596
     44          1           0        2.552141   -3.635217   -2.663642
     45          1           0        2.801341   -2.216131   -3.727765
     46          6           0        6.536579    0.396243    1.532746
     47          8           0        4.241277    1.213965    2.013757
     48          6           0        7.148313   -0.470820    0.670836
     49          1           0        7.068047    0.967090    2.280059
     50          6           0        4.733248    2.022402    3.077203
     51          1           0        8.199785   -0.705140    0.606801
     52          1           0        5.448691    2.765461    2.710166
     53          1           0        3.864873    2.531318    3.491782
     54          1           0        5.201883    1.409562    3.854076
 ---------------------------------------------------------------------

 The electronic state is 1-A.
 Alpha  occ. eigenvalues --  -88.88036 -88.87955 -19.16821 -19.16707 -19.12516
 Alpha  occ. eigenvalues --  -19.12484 -19.11919 -19.11784 -14.38679 -14.38150
 Alpha  occ. eigenvalues --  -10.31126 -10.30962 -10.30568 -10.30518 -10.24370
 Alpha  occ. eigenvalues --  -10.24306 -10.23694 -10.23640 -10.23603 -10.22986
 Alpha  occ. eigenvalues --  -10.22725 -10.22720 -10.22396 -10.22389 -10.22205
 Alpha  occ. eigenvalues --  -10.21836 -10.21788 -10.21562 -10.21382 -10.21284
 Alpha  occ. eigenvalues --  -10.21227 -10.21090 -10.20663 -10.20606 -10.18888
 Alpha  occ. eigenvalues --  -10.18636  -7.96589  -7.96507  -5.92899  -5.92832
 Alpha  occ. eigenvalues --   -5.92510  -5.92438  -5.92158  -5.92043  -1.08762
 Alpha  occ. eigenvalues --   -1.08373  -1.08301  -1.08241  -1.06955  -1.06443
 Alpha  occ. eigenvalues --   -0.96322  -0.95759  -0.92571  -0.90112  -0.88576
 Alpha  occ. eigenvalues --   -0.86714  -0.84365  -0.80447  -0.78529  -0.77462
 Alpha  occ. eigenvalues --   -0.76283  -0.75227  -0.75065  -0.73056  -0.72541
 Alpha  occ. eigenvalues --   -0.71564  -0.70312  -0.68786  -0.67159  -0.65959
 Alpha  occ. eigenvalues --   -0.65547  -0.64859  -0.60865  -0.59783  -0.58597
 Alpha  occ. eigenvalues --   -0.57473  -0.56687  -0.56103  -0.55133  -0.54631
 Alpha  occ. eigenvalues --   -0.53781  -0.51740  -0.50271  -0.49921  -0.49726
 Alpha  occ. eigenvalues --   -0.49446  -0.48704  -0.48578  -0.48550  -0.48292
 Alpha  occ. eigenvalues --   -0.47971  -0.47179  -0.46630  -0.46381  -0.45792
 Alpha  occ. eigenvalues --   -0.45386  -0.44974  -0.44722  -0.44376  -0.43930
 Alpha  occ. eigenvalues --   -0.42790  -0.42445  -0.42272  -0.41997  -0.41809
 Alpha  occ. eigenvalues --   -0.41408  -0.41328  -0.41216  -0.40595  -0.39930
 Alpha  occ. eigenvalues --   -0.39513  -0.38936  -0.38696  -0.37748  -0.37280
 Alpha  occ. eigenvalues --   -0.36215  -0.35769  -0.34094  -0.33720  -0.33476
 Alpha  occ. eigenvalues --   -0.33413  -0.32215  -0.31025  -0.30108  -0.29834
 Alpha  occ. eigenvalues --   -0.29307  -0.28920  -0.28692  -0.28098  -0.27484
 Alpha  occ. eigenvalues --   -0.26221  -0.24654  -0.24137  -0.19117
 Alpha virt. eigenvalues --   -0.13164  -0.07099  -0.06312  -0.04787  -0.03975
 Alpha virt. eigenvalues --   -0.00888  -0.00388  -0.00294   0.00024   0.00534
 Alpha virt. eigenvalues --    0.00668   0.01052   0.01268   0.01427   0.01877

 Mulliken charges:
               1
     1  C    0.324425
     2  C   -0.043423
     3  C    0.187091
     4  C    0.280877
     5  C    0.291744
     6  C   -0.367799
     7  C    0.154958
     8  C    0.035435
     9  C    0.250855
    10  C   -0.256386
    11  C    0.235842
    12  C    0.177379
    13  C   -0.445062
    14  C   -0.665983
    15  H    0.160463
    16  H    0.161794
    17  H    0.168498
    18  N   -0.120540
    19  N   -0.140106
    20  O   -0.275816
    21  O   -0.270824
    22  O   -0.278366
    23  O   -0.196999
    24  C   -0.179251
    25  H    0.177583
    26  H    0.177046
    27  H    0.182713
    28  C   -0.198331
    29  H    0.173667
    30  H    0.175562
    31  H    0.182563
    32  C    0.198685
    33  C   -0.508989
    34  S   -0.477912
    35  C   -0.244519
    36  H    0.129041
    37  C    0.451225
    38  O   -0.116886
    39  C    0.986878
    40  C   -0.248186
    41  C   -0.016302
    42  S   -0.238420
    43  H    0.166422
    44  H    0.147464
    45  H    0.150744
    46  C   -0.522428
    47  O   -0.141025
    48  C   -0.281030
    49  H    0.130579
    50  C   -0.238494
    51  H    0.159401
    52  H    0.144448
    53  H    0.164933
    54  H    0.144762
 Sum of Mulliken charges =  -0.00000

 Dipole moment (field-independent basis, Debye):
    X=              3.2303    Y=             -0.3707    Z=              0.1047  Tot=              3.2532
 Quadrupole moment (field-independent basis, Debye-Ang):
   XX=           -216.7272   YY=           -226.0906   ZZ=           -206.7105
   XY=              8.2209   XZ=             10.7014   YZ=             14.6562

 Normal termination of Gaussian 16 at Sun Nov 29 14:26:31 2020.
