 Gaussian 16, Revision C.01,
 Gaussian 16:  ES64L-G16RevC.01  3-Jul-2019

 -------------------------------------
 # opt=modredundant b3lyp/6-311+g(d,p)
 -------------------------------------

 ----------
 NDI_75.pdb
 ----------
 Symbolic Z-matrix:
 Charge =  0 Multiplicity = 1

 SCF Done:  E(RB3LYP) =  -2359.32981395     A.U. after   20 cycles
 SCF Done:  E(RB3LYP) =  -2359.33354313     A.U. after   15 cycles
 SCF Done:  E(RB3LYP) =  -2359.33472574     A.U. after   16 cycles
 SCF Done:  E(RB3LYP) =  -2359.33497770     A.U. after   14 cycles
 SCF Done:  E(RB3LYP) =  -2359.33505994     A.U. after   13 cycles
 SCF Done:  E(RB3LYP) =  -2359.33509245     A.U. after   12 cycles
 SCF Done:  E(RB3LYP) =  -2359.33510383     A.U. after   12 cycles
 SCF Done:  E(RB3LYP) =  -2359.33510693     A.U. after   11 cycles
 SCF Done:  E(RB3LYP) =  -2359.33510809     A.U. after   11 cycles
 SCF Done:  E(RB3LYP) =  -2359.33510859     A.U. after    9 cycles
 SCF Done:  E(RB3LYP) =  -2359.33510870     A.U. after    9 cycles
 Optimization completed.
    -- Stationary point found.

                         Standard orientation:
 ---------------------------------------------------------------------
 Center     Atomic      Atomic             Coordinates (Angstroms)
 Number     Number       Type             X           Y           Z
 ---------------------------------------------------------------------
      1          6           0       -2.907167   -2.883651    0.603848
      2          6           0       -2.435015   -1.492093    0.375096
      3          6           0       -3.357547   -0.467620    0.067366
      4          6           0       -4.737433   -0.749912   -0.039177
      5          6           0       -5.242834   -2.132462    0.180647
      6          6           0       -1.092560   -1.204812    0.461896
      7          6           0       -2.876415    0.852446   -0.151372
      8          6           0       -1.485524    1.137769   -0.042298
      9          6           0       -0.588601    0.111538    0.290657
     10          6           0       -1.020677    2.526427   -0.334143
     11          6           0       -3.371924    3.246350   -0.768789
     12          6           0       -3.815067    1.857427   -0.491754
     13          6           0       -5.164187    1.559325   -0.588909
     14          6           0       -5.630051    0.257492   -0.360276
     15          1           0       -6.683299    0.019746   -0.438210
     16          1           0       -5.848614    2.355986   -0.851760
     17          1           0       -0.404286   -2.005121    0.702223
     18          7           0       -1.995945    3.475138   -0.695932
     19          7           0       -4.283512   -3.112963    0.480431
     20          8           0       -2.154667   -3.794665    0.892424
     21          8           0       -6.425457   -2.406754    0.104396
     22          8           0       -4.155648    4.134447   -1.052308
     23          8           0        0.142181    2.874167   -0.284844
     24          6           0       -1.496036    4.826988   -0.987368
     25          1           0       -0.986714    5.230429   -0.111909
     26          1           0       -0.781914    4.784534   -1.809659
     27          1           0       -2.347420    5.446117   -1.251174
     28          6           0       -4.735617   -4.493441    0.707684
     29          1           0       -4.232762   -5.162740    0.009719
     30          1           0       -4.484034   -4.801930    1.722798
     31          1           0       -5.810119   -4.521925    0.557696
     32          6           0        0.869354    0.276768    0.455992
     33          6           0        1.548911    0.849080    1.499205
     34         16           0        1.954336   -0.543768   -0.632853
     35          6           0        2.950856    0.660527    1.411119
     36          1           0        1.055704    1.395100    2.289785
     37          6           0        3.362829   -0.071650    0.305466
     38          8           0        3.884234    1.143041    2.277218
     39          6           0        4.707872   -0.393782   -0.095510
     40          6           0        3.427674    1.791453    3.458921
     41          6           0        5.111552   -1.160016   -1.180662
     42         16           0        6.126808    0.171914    0.776551
     43          1           0        4.322779    2.060352    4.017192
     44          1           0        2.863252    2.698655    3.219441
     45          1           0        2.809203    1.119808    4.063584
     46          6           0        6.522168   -1.291803   -1.310649
     47          8           0        4.170132   -1.705559   -1.999634
     48          6           0        7.191636   -0.624432   -0.323241
     49          1           0        7.016248   -1.851813   -2.091163
     50          6           0        4.614368   -2.454718   -3.125022
     51          1           0        8.258714   -0.560651   -0.175792
     52          1           0        5.192741   -3.330834   -2.813674
     53          1           0        3.713384   -2.782123   -3.640966
     54          1           0        5.215472   -1.835742   -3.799168
 ---------------------------------------------------------------------

 The electronic state is 1-A.
 Alpha  occ. eigenvalues --  -88.87968 -88.87701 -19.16490 -19.16356 -19.12692
 Alpha  occ. eigenvalues --  -19.12626 -19.12271 -19.12181 -14.38832 -14.38486
 Alpha  occ. eigenvalues --  -10.31311 -10.31105 -10.30959 -10.30871 -10.23958
 Alpha  occ. eigenvalues --  -10.23956 -10.23817 -10.23448 -10.23333 -10.23271
 Alpha  occ. eigenvalues --  -10.23164 -10.23021 -10.22677 -10.22626 -10.22562
 Alpha  occ. eigenvalues --  -10.21686 -10.21612 -10.21574 -10.21550 -10.21304
 Alpha  occ. eigenvalues --  -10.21204 -10.21048 -10.20931 -10.20228 -10.18460
 Alpha  occ. eigenvalues --  -10.18320  -7.96515  -7.96256  -5.92839  -5.92566
 Alpha  occ. eigenvalues --   -5.92447  -5.92177  -5.92059  -5.91824  -1.08931
 Alpha  occ. eigenvalues --   -1.08663  -1.08012  -1.07887  -1.07128  -1.06814
 Alpha  occ. eigenvalues --   -0.96496  -0.96082  -0.92839  -0.89906  -0.88376
 Alpha  occ. eigenvalues --   -0.86809  -0.84635  -0.80441  -0.78783  -0.77314
 Alpha  occ. eigenvalues --   -0.76034  -0.75434  -0.74772  -0.72917  -0.72529
 Alpha  occ. eigenvalues --   -0.71853  -0.69982  -0.68706  -0.67390  -0.66196
 Alpha  occ. eigenvalues --   -0.65765  -0.64906  -0.60882  -0.59582  -0.58601
 Alpha  occ. eigenvalues --   -0.57641  -0.56587  -0.55810  -0.55582  -0.54293
 Alpha  occ. eigenvalues --   -0.53737  -0.51947  -0.50446  -0.50061  -0.49936
 Alpha  occ. eigenvalues --   -0.49356  -0.48844  -0.48745  -0.48275  -0.48010
 Alpha  occ. eigenvalues --   -0.47785  -0.47394  -0.46817  -0.46513  -0.45667
 Alpha  occ. eigenvalues --   -0.45290  -0.45009  -0.44852  -0.44540  -0.44000
 Alpha  occ. eigenvalues --   -0.42849  -0.42705  -0.42262  -0.42134  -0.41808
 Alpha  occ. eigenvalues --   -0.41429  -0.41361  -0.41075  -0.40749  -0.40030
 Alpha  occ. eigenvalues --   -0.39809  -0.38992  -0.38512  -0.37732  -0.37100
 Alpha  occ. eigenvalues --   -0.35922  -0.35622  -0.33870  -0.33530  -0.33358
 Alpha  occ. eigenvalues --   -0.33037  -0.32523  -0.31264  -0.30431  -0.29920
 Alpha  occ. eigenvalues --   -0.29387  -0.29240  -0.28853  -0.28452  -0.27237
 Alpha  occ. eigenvalues --   -0.26485  -0.24309  -0.24128  -0.18866
 Alpha virt. eigenvalues --   -0.13363  -0.07138  -0.06181  -0.04987  -0.04332
 Alpha virt. eigenvalues --   -0.01015  -0.00164  -0.00147   0.00133   0.00581
 Alpha virt. eigenvalues --    0.00752   0.00956   0.01017   0.01226   0.01812

 Mulliken charges:
               1
     1  C    0.401818
     2  C   -0.036180
     3  C    0.190347
     4  C    0.195603
     5  C    0.263795
     6  C   -0.557730
     7  C    0.196144
     8  C    0.126593
     9  C    0.561520
    10  C   -0.467810
    11  C    0.178491
    12  C    0.154986
    13  C   -0.468505
    14  C   -0.594514
    15  H    0.160984
    16  H    0.161953
    17  H    0.178273
    18  N   -0.167363
    19  N   -0.145272
    20  O   -0.271775
    21  O   -0.269290
    22  O   -0.273128
    23  O   -0.110630
    24  C   -0.214610
    25  H    0.174324
    26  H    0.178036
    27  H    0.183417
    28  C   -0.199973
    29  H    0.174923
    30  H    0.175705
    31  H    0.182529
    32  C    0.017198
    33  C   -0.393259
    34  S   -0.375502
    35  C   -0.072533
    36  H    0.118901
    37  C    0.591449
    38  O   -0.138715
    39  C    0.740373
    40  C   -0.225582
    41  C   -0.036614
    42  S   -0.272446
    43  H    0.165052
    44  H    0.148420
    45  H    0.145974
    46  C   -0.537829
    47  O   -0.140367
    48  C   -0.297145
    49  H    0.129422
    50  C   -0.239482
    51  H    0.157981
    52  H    0.142686
    53  H    0.163791
    54  H    0.145567
 Sum of Mulliken charges =  -0.00000

 Dipole moment (field-independent basis, Debye):
    X=              2.1990    Y=             -0.3559    Z=              0.1091  Tot=              2.2303
 Quadrupole moment (field-independent basis, Debye-Ang):
   XX=           -221.1977   YY=           -225.6583   ZZ=           -203.9875
   XY=             -2.4670   XZ=             -7.9701   YZ=             15.4842

 Normal termination of Gaussian 16 at Sun Nov 29 12:11:21 2020.
