 Gaussian 16, Revision C.01,
 Gaussian 16:  ES64L-G16RevC.01  3-Jul-2019

 -------------------------------------
 # opt=modredundant b3lyp/6-311+g(d,p)
 -------------------------------------

 -----------
 NDI_180.pdb
 -----------
 Symbolic Z-matrix:
 Charge =  0 Multiplicity = 1

 SCF Done:  E(RB3LYP) =  -2359.29074986     A.U. after   17 cycles
 SCF Done:  E(RB3LYP) =  -2359.32178431     A.U. after   17 cycles
 SCF Done:  E(RB3LYP) =  -2359.33080006     A.U. after   16 cycles
 SCF Done:  E(RB3LYP) =  -2359.33287647     A.U. after   13 cycles
 SCF Done:  E(RB3LYP) =  -2359.33321789     A.U. after   13 cycles
 SCF Done:  E(RB3LYP) =  -2359.33324571     A.U. after   12 cycles
 SCF Done:  E(RB3LYP) =  -2359.33326455     A.U. after   12 cycles
 SCF Done:  E(RB3LYP) =  -2359.33327764     A.U. after   11 cycles
 SCF Done:  E(RB3LYP) =  -2359.33336770     A.U. after   13 cycles
 SCF Done:  E(RB3LYP) =  -2359.33330600     A.U. after   16 cycles
 SCF Done:  E(RB3LYP) =  -2359.33350343     A.U. after   10 cycles
 SCF Done:  E(RB3LYP) =  -2359.33069324     A.U. after   16 cycles
 SCF Done:  E(RB3LYP) =  -2359.33333983     A.U. after   14 cycles
 SCF Done:  E(RB3LYP) =  -2359.33355136     A.U. after    9 cycles
 SCF Done:  E(RB3LYP) =  -2359.33358907     A.U. after   12 cycles
 SCF Done:  E(RB3LYP) =  -2359.33359681     A.U. after   11 cycles
 SCF Done:  E(RB3LYP) =  -2359.33359935     A.U. after   11 cycles
 SCF Done:  E(RB3LYP) =  -2359.33360037     A.U. after   11 cycles
 SCF Done:  E(RB3LYP) =  -2359.33360055     A.U. after   10 cycles
 SCF Done:  E(RB3LYP) =  -2359.33360065     A.U. after    9 cycles
 Optimization completed.
    -- Stationary point found.

                         Standard orientation:
 ---------------------------------------------------------------------
 Center     Atomic      Atomic             Coordinates (Angstroms)
 Number     Number       Type             X           Y           Z
 ---------------------------------------------------------------------
      1          6           0       -3.533739   -2.668069    0.002528
      2          6           0       -2.797625   -1.378537    0.082199
      3          6           0       -3.481800   -0.150935   -0.064492
      4          6           0       -4.869683   -0.127919   -0.293242
      5          6           0       -5.637173   -1.397708   -0.388606
      6          6           0       -1.446699   -1.397101    0.275453
      7          6           0       -2.728985    1.048561    0.041567
      8          6           0       -1.312547    1.018300    0.259474
      9          6           0       -0.619445   -0.226829    0.348244
     10          6           0       -0.656248    2.318218    0.496048
     11          6           0       -2.762023    3.568950    0.052865
     12          6           0       -3.445437    2.266474   -0.082495
     13          6           0       -4.815031    2.273111   -0.318285
     14          6           0       -5.534634    1.082440   -0.426545
     15          1           0       -6.602018    1.082993   -0.605002
     16          1           0       -5.308575    3.232394   -0.409412
     17          1           0       -1.007766   -2.378032    0.341705
     18          7           0       -1.405574    3.498720    0.366031
     19          7           0       -4.909910   -2.591780   -0.228716
     20          8           0       -2.987338   -3.750320    0.126069
     21          8           0       -6.836291   -1.416068   -0.592077
     22          8           0       -3.337335    4.636251   -0.079133
     23          8           0        0.520422    2.430225    0.807337
     24          6           0       -0.674378    4.754141    0.587797
     25          1           0       -0.259209    4.766938    1.595525
     26          1           0        0.147834    4.834219   -0.123591
     27          1           0       -1.375726    5.571315    0.451952
     28          6           0       -5.630258   -3.870253   -0.311236
     29          1           0       -5.205197   -4.480624   -1.108156
     30          1           0       -5.528925   -4.412025    0.629599
     31          1           0       -6.674203   -3.652561   -0.513022
     32          6           0        0.816550   -0.521690    0.407944
     33          6           0        1.328605   -1.823724    0.494327
     34         16           0        2.153895    0.590574    0.124831
     35          6           0        2.709653   -1.921514    0.317806
     36          1           0        0.729215   -2.695289    0.694539
     37          6           0        3.332332   -0.696302    0.065655
     38          8           0        3.461727   -3.052360    0.386902
     39          6           0        4.730359   -0.464518   -0.155410
     40          6           0        2.787509   -4.299846    0.525403
     41          6           0        5.365706    0.752448   -0.396504
     42         16           0        5.928348   -1.756903   -0.166868
     43          1           0        3.564376   -5.062091    0.513966
     44          1           0        2.243101   -4.351335    1.473971
     45          1           0        2.096720   -4.468263   -0.306983
     46          6           0        6.770685    0.648494   -0.583881
     47          8           0        4.631011    1.889017   -0.435028
     48          6           0        7.204555   -0.645031   -0.487285
     49          1           0        7.426409    1.483991   -0.780068
     50          6           0        5.306176    3.126311   -0.645558
     51          1           0        8.216285   -1.007670   -0.587228
     52          1           0        5.806864    3.140631   -1.618880
     53          1           0        4.533648    3.892287   -0.622426
     54          1           0        6.033559    3.317001    0.149726
 ---------------------------------------------------------------------

 The electronic state is 1-A.
 Alpha  occ. eigenvalues --  -88.88761 -88.88287 -19.17477 -19.17206 -19.12224
 Alpha  occ. eigenvalues --  -19.12184 -19.11526 -19.11240 -14.38388 -14.37773
 Alpha  occ. eigenvalues --  -10.30762 -10.30674 -10.30112 -10.29807 -10.25342
 Alpha  occ. eigenvalues --  -10.24748 -10.24132 -10.24083 -10.23930 -10.22788
 Alpha  occ. eigenvalues --  -10.22482 -10.22403 -10.22100 -10.22079 -10.21922
 Alpha  occ. eigenvalues --  -10.21760 -10.21750 -10.21512 -10.21419 -10.21146
 Alpha  occ. eigenvalues --  -10.20876 -10.20494 -10.20431 -10.20427 -10.19388
 Alpha  occ. eigenvalues --  -10.19341  -7.97313  -7.96735  -5.93622  -5.93233
 Alpha  occ. eigenvalues --   -5.93058  -5.92883  -5.92641  -5.92289  -1.09127
 Alpha  occ. eigenvalues --   -1.08772  -1.08452  -1.07952  -1.06636  -1.05935
 Alpha  occ. eigenvalues --   -0.96012  -0.95381  -0.91979  -0.90490  -0.88929
 Alpha  occ. eigenvalues --   -0.86350  -0.83808  -0.80479  -0.78031  -0.77742
 Alpha  occ. eigenvalues --   -0.76698  -0.75658  -0.74907  -0.73473  -0.72283
 Alpha  occ. eigenvalues --   -0.71443  -0.70763  -0.68890  -0.66842  -0.65668
 Alpha  occ. eigenvalues --   -0.65307  -0.64660  -0.61005  -0.60161  -0.58560
 Alpha  occ. eigenvalues --   -0.57391  -0.56789  -0.56499  -0.55443  -0.54676
 Alpha  occ. eigenvalues --   -0.53608  -0.51359  -0.50158  -0.49893  -0.49330
 Alpha  occ. eigenvalues --   -0.49209  -0.49066  -0.48738  -0.48715  -0.48302
 Alpha  occ. eigenvalues --   -0.48167  -0.47264  -0.46560  -0.46070  -0.45952
 Alpha  occ. eigenvalues --   -0.45590  -0.44923  -0.44265  -0.44020  -0.43411
 Alpha  occ. eigenvalues --   -0.43154  -0.42469  -0.42301  -0.41937  -0.41622
 Alpha  occ. eigenvalues --   -0.41577  -0.41221  -0.40969  -0.40407  -0.39753
 Alpha  occ. eigenvalues --   -0.39455  -0.39182  -0.38896  -0.37509  -0.37091
 Alpha  occ. eigenvalues --   -0.36439  -0.36271  -0.34571  -0.34321  -0.33594
 Alpha  occ. eigenvalues --   -0.33154  -0.31733  -0.30650  -0.30406  -0.29548
 Alpha  occ. eigenvalues --   -0.29194  -0.28597  -0.28483  -0.27612  -0.27228
 Alpha  occ. eigenvalues --   -0.25908  -0.24989  -0.24644  -0.19721
 Alpha virt. eigenvalues --   -0.12640  -0.07864  -0.06206  -0.04193  -0.03700
 Alpha virt. eigenvalues --   -0.00860  -0.00450  -0.00330  -0.00093   0.00423
 Alpha virt. eigenvalues --    0.00968   0.01126   0.01481   0.02007   0.02059

 Mulliken charges:
               1
     1  C    0.347694
     2  C   -0.056063
     3  C    0.137351
     4  C    0.159950
     5  C    0.278952
     6  C   -0.022589
     7  C    0.084263
     8  C    0.107722
     9  C    0.399799
    10  C   -0.168232
    11  C    0.240624
    12  C    0.100430
    13  C   -0.450215
    14  C   -0.598536
    15  H    0.157105
    16  H    0.160949
    17  H    0.160012
    18  N   -0.150212
    19  N   -0.147328
    20  O   -0.288130
    21  O   -0.265025
    22  O   -0.279866
    23  O   -0.223394
    24  C   -0.182624
    25  H    0.175926
    26  H    0.172915
    27  H    0.183328
    28  C   -0.200703
    29  H    0.172880
    30  H    0.173437
    31  H    0.182470
    32  C   -0.187474
    33  C   -0.120402
    34  S   -0.549794
    35  C   -0.245588
    36  H    0.124557
    37  C    0.516617
    38  O   -0.137643
    39  C    0.769803
    40  C   -0.226375
    41  C   -0.077634
    42  S   -0.257163
    43  H    0.168235
    44  H    0.148187
    45  H    0.152458
    46  C   -0.549608
    47  O   -0.110548
    48  C   -0.296812
    49  H    0.133087
    50  C   -0.242487
    51  H    0.162852
    52  H    0.144115
    53  H    0.171173
    54  H    0.147560
 Sum of Mulliken charges =  -0.00000

 Dipole moment (field-independent basis, Debye):
    X=              5.6300    Y=             -0.8949    Z=             -0.4037  Tot=              5.7149
 Quadrupole moment (field-independent basis, Debye-Ang):
   XX=           -209.9420   YY=           -213.1007   ZZ=           -223.4297
   XY=             13.4410   XZ=             -7.2778   YZ=             -2.8888

 Normal termination of Gaussian 16 at Sun Nov 29 20:57:31 2020.
