 Gaussian 16, Revision C.01,
 Gaussian 16:  ES64L-G16RevC.01  3-Jul-2019

 -------------------------------------
 # opt=modredundant b3lyp/6-311+g(d,p)
 -------------------------------------

 -----------
 NDI_-60.pdb
 -----------
 Symbolic Z-matrix:
 Charge =  0 Multiplicity = 1

 SCF Done:  E(RB3LYP) =  -2359.33505216     A.U. after   19 cycles
 SCF Done:  E(RB3LYP) =  -2359.33642226     A.U. after   16 cycles
 SCF Done:  E(RB3LYP) =  -2359.33699567     A.U. after   14 cycles
 SCF Done:  E(RB3LYP) =  -2359.33705624     A.U. after   14 cycles
 SCF Done:  E(RB3LYP) =  -2359.33707753     A.U. after   12 cycles
 SCF Done:  E(RB3LYP) =  -2359.33708176     A.U. after   12 cycles
 SCF Done:  E(RB3LYP) =  -2359.33708293     A.U. after   11 cycles
 SCF Done:  E(RB3LYP) =  -2359.33708322     A.U. after   10 cycles
 SCF Done:  E(RB3LYP) =  -2359.33708334     A.U. after   11 cycles
 Optimization completed.
    -- Stationary point found.

                         Standard orientation:
 ---------------------------------------------------------------------
 Center     Atomic      Atomic             Coordinates (Angstroms)
 Number     Number       Type             X           Y           Z
 ---------------------------------------------------------------------
      1          6           0        2.735487   -2.930156    0.582197
      2          6           0        2.343474   -1.516711    0.336903
      3          6           0        3.328692   -0.535246    0.085070
      4          6           0        4.696627   -0.880893    0.061455
      5          6           0        5.124205   -2.283310    0.315316
      6          6           0        1.016471   -1.165878    0.373054
      7          6           0        2.918008    0.804915   -0.157339
      8          6           0        1.536684    1.156023   -0.124308
      9          6           0        0.574020    0.173779    0.184612
     10          6           0        1.160388    2.555700   -0.471300
     11          6           0        3.566826    3.170163   -0.737654
     12          6           0        3.923203    1.763006   -0.440272
     13          6           0        5.261713    1.402846   -0.457670
     14          6           0        5.654337    0.083430   -0.204069
     15          1           0        6.698255   -0.202397   -0.217397
     16          1           0        5.995020    2.168677   -0.676624
     17          1           0        0.288838   -1.936359    0.592836
     18          7           0        2.201060    3.459878   -0.759185
     19          7           0        4.105361   -3.218734    0.559586
     20          8           0        1.923981   -3.811644    0.794056
     21          8           0        6.295480   -2.612028    0.311194
     22          8           0        4.407232    4.023420   -0.962712
     23          8           0        0.013221    2.955637   -0.538478
     24          6           0        1.784325    4.828088   -1.099209
     25          1           0        1.141807    4.809071   -1.979446
     26          1           0        1.220824    5.260631   -0.272182
     27          1           0        2.680600    5.408814   -1.292457
     28          6           0        4.479909   -4.618067    0.810047
     29          1           0        4.101050   -4.930643    1.783138
     30          1           0        4.039648   -5.259877    0.046435
     31          1           0        5.562883   -4.683797    0.782858
     32          6           0       -0.871980    0.395362    0.306709
     33          6           0       -1.552314    1.224550    1.166474
     34         16           0       -1.974536   -0.677987   -0.524959
     35          6           0       -2.949550    1.027420    1.137055
     36          1           0       -1.056748    1.957176    1.784468
     37          6           0       -3.372000    0.033781    0.257055
     38          8           0       -3.875856    1.704110    1.868056
     39          6           0       -4.720073   -0.364248   -0.043808
     40          6           0       -3.431079    2.808363    2.650553
     41          6           0       -5.135885   -1.381399   -0.895124
     42         16           0       -6.130356    0.424591    0.652674
     43          1           0       -4.326651    3.239455    3.094512
     44          1           0       -2.754596    2.480154    3.446651
     45          1           0       -2.932849    3.556674    2.026292
     46          6           0       -6.547773   -1.524514   -0.987085
     47          8           0       -4.204130   -2.125213   -1.548604
     48          6           0       -7.205624   -0.615777   -0.205582
     49          1           0       -7.051121   -2.260589   -1.596675
     50          6           0       -4.656270   -3.184029   -2.386747
     51          1           0       -8.271607   -0.503256   -0.080592
     52          1           0       -5.270785   -2.801490   -3.208097
     53          1           0       -3.758789   -3.647940   -2.791832
     54          1           0       -5.222827   -3.925466   -1.814243
 ---------------------------------------------------------------------

 The electronic state is 1-A.
 Alpha  occ. eigenvalues --  -88.88259 -88.88141 -19.16940 -19.16685 -19.12462
 Alpha  occ. eigenvalues --  -19.12407 -19.11907 -19.11817 -14.38617 -14.38200
 Alpha  occ. eigenvalues --  -10.31070 -10.30884 -10.30670 -10.30497 -10.24504
 Alpha  occ. eigenvalues --  -10.24357 -10.23744 -10.23721 -10.23487 -10.22973
 Alpha  occ. eigenvalues --  -10.22743 -10.22647 -10.22340 -10.22326 -10.22139
 Alpha  occ. eigenvalues --  -10.21942 -10.21812 -10.21503 -10.21438 -10.21208
 Alpha  occ. eigenvalues --  -10.21154 -10.21038 -10.20751 -10.20729 -10.18754
 Alpha  occ. eigenvalues --  -10.18742  -7.96815  -7.96694  -5.93135  -5.93004
 Alpha  occ. eigenvalues --   -5.92745  -5.92615  -5.92361  -5.92262  -1.08706
 Alpha  occ. eigenvalues --   -1.08478  -1.08329  -1.08232  -1.06897  -1.06450
 Alpha  occ. eigenvalues --   -0.96268  -0.95768  -0.92514  -0.90206  -0.88649
 Alpha  occ. eigenvalues --   -0.86673  -0.84321  -0.80413  -0.78494  -0.77560
 Alpha  occ. eigenvalues --   -0.76298  -0.75213  -0.75148  -0.73054  -0.72468
 Alpha  occ. eigenvalues --   -0.71803  -0.70225  -0.68797  -0.67176  -0.65928
 Alpha  occ. eigenvalues --   -0.65609  -0.64715  -0.61011  -0.59769  -0.58586
 Alpha  occ. eigenvalues --   -0.57422  -0.56695  -0.56186  -0.55372  -0.54646
 Alpha  occ. eigenvalues --   -0.53544  -0.51728  -0.50273  -0.49887  -0.49794
 Alpha  occ. eigenvalues --   -0.49442  -0.48679  -0.48609  -0.48559  -0.48261
 Alpha  occ. eigenvalues --   -0.48022  -0.47113  -0.46616  -0.46329  -0.45811
 Alpha  occ. eigenvalues --   -0.45441  -0.44994  -0.44605  -0.44325  -0.43809
 Alpha  occ. eigenvalues --   -0.42698  -0.42562  -0.42329  -0.42039  -0.41864
 Alpha  occ. eigenvalues --   -0.41441  -0.41298  -0.41203  -0.40566  -0.39745
 Alpha  occ. eigenvalues --   -0.39690  -0.39188  -0.38723  -0.37627  -0.37439
 Alpha  occ. eigenvalues --   -0.36259  -0.35637  -0.34220  -0.33782  -0.33669
 Alpha  occ. eigenvalues --   -0.33344  -0.32223  -0.31054  -0.30343  -0.29772
 Alpha  occ. eigenvalues --   -0.29301  -0.28991  -0.28701  -0.28158  -0.27282
 Alpha  occ. eigenvalues --   -0.26189  -0.24547  -0.24464  -0.19211
 Alpha virt. eigenvalues --   -0.13132  -0.07110  -0.06357  -0.04743  -0.04023
 Alpha virt. eigenvalues --   -0.00935  -0.00332  -0.00307   0.00063   0.00560
 Alpha virt. eigenvalues --    0.00697   0.01078   0.01320   0.01424   0.01797

 Mulliken charges:
               1
     1  C    0.356685
     2  C   -0.056136
     3  C    0.085076
     4  C    0.240040
     5  C    0.217436
     6  C   -0.663087
     7  C    0.215282
     8  C    0.190431
     9  C    0.538292
    10  C   -0.303558
    11  C    0.376142
    12  C    0.112304
    13  C   -0.522461
    14  C   -0.649211
    15  H    0.159894
    16  H    0.161943
    17  H    0.183913
    18  N   -0.155390
    19  N   -0.145070
    20  O   -0.275321
    21  O   -0.268788
    22  O   -0.276878
    23  O   -0.166223
    24  C   -0.195319
    25  H    0.177687
    26  H    0.172012
    27  H    0.183809
    28  C   -0.197626
    29  H    0.174549
    30  H    0.174542
    31  H    0.182801
    32  C    0.122823
    33  C   -0.270999
    34  S   -0.477544
    35  C   -0.402509
    36  H    0.128194
    37  C    0.552092
    38  O   -0.122096
    39  C    0.894029
    40  C   -0.240731
    41  C   -0.037405
    42  S   -0.240089
    43  H    0.165107
    44  H    0.143716
    45  H    0.159175
    46  C   -0.493570
    47  O   -0.132223
    48  C   -0.283379
    49  H    0.131043
    50  C   -0.239969
    51  H    0.160072
    52  H    0.144818
    53  H    0.166241
    54  H    0.145435
 Sum of Mulliken charges =  -0.00000

 Dipole moment (field-independent basis, Debye):
    X=             -3.5398    Y=             -0.4195    Z=              0.1672  Tot=              3.5685
 Quadrupole moment (field-independent basis, Debye-Ang):
   XX=           -219.0883   YY=           -217.8893   ZZ=           -212.2135
   XY=              3.2743   XZ=              6.4044   YZ=             16.7940

 Normal termination of Gaussian 16 at Sun Nov 29 11:32:11 2020.
