 Gaussian 16, Revision C.01,
 Gaussian 16:  ES64L-G16RevC.01  3-Jul-2019

 -------------------------------------
 # opt=modredundant b3lyp/6-311+g(d,p)
 -------------------------------------

 ------------
 NDI_-100.pdb
 ------------
 Symbolic Z-matrix:
 Charge =  0 Multiplicity = 1

 SCF Done:  E(RB3LYP) =  -2359.32928934     A.U. after   19 cycles
 SCF Done:  E(RB3LYP) =  -2359.33363913     A.U. after   16 cycles
 SCF Done:  E(RB3LYP) =  -2359.33412474     A.U. after   15 cycles
 SCF Done:  E(RB3LYP) =  -2359.33424062     A.U. after   15 cycles
 SCF Done:  E(RB3LYP) =  -2359.33433471     A.U. after   14 cycles
 SCF Done:  E(RB3LYP) =  -2359.33434255     A.U. after   14 cycles
 SCF Done:  E(RB3LYP) =  -2359.33435242     A.U. after   14 cycles
 SCF Done:  E(RB3LYP) =  -2359.33435408     A.U. after   13 cycles
 SCF Done:  E(RB3LYP) =  -2359.33435493     A.U. after   11 cycles
 SCF Done:  E(RB3LYP) =  -2359.33435510     A.U. after   11 cycles
 SCF Done:  E(RB3LYP) =  -2359.33435520     A.U. after    9 cycles
 SCF Done:  E(RB3LYP) =  -2359.33435525     A.U. after    9 cycles
 Optimization completed.
    -- Stationary point found.

                         Standard orientation:
 ---------------------------------------------------------------------
 Center     Atomic      Atomic             Coordinates (Angstroms)
 Number     Number       Type             X           Y           Z
 ---------------------------------------------------------------------
      1          6           0        3.318092   -2.833382    0.003193
      2          6           0        2.659049   -1.501851    0.072126
      3          6           0        3.418477   -0.322449   -0.085334
      4          6           0        4.813045   -0.387247   -0.306956
      5          6           0        5.503718   -1.703986   -0.380360
      6          6           0        1.303141   -1.420085    0.299181
      7          6           0        2.765543    0.937728   -0.004304
      8          6           0        1.361822    1.003872    0.219665
      9          6           0        0.624970   -0.176968    0.366097
     10          6           0        0.722840    2.349075    0.351945
     11          6           0        2.924729    3.455035   -0.047351
     12          6           0        3.548043    2.110081   -0.145566
     13          6           0        4.911517    2.023401   -0.366726
     14          6           0        5.547415    0.775624   -0.449242
     15          1           0        6.614386    0.704163   -0.618315
     16          1           0        5.475693    2.941677   -0.470053
     17          1           0        0.735191   -2.334588    0.413982
     18          7           0        1.552183    3.477428    0.210160
     19          7           0        4.702667   -2.844354   -0.210470
     20          8           0        2.704136   -3.877050    0.116380
     21          8           0        6.700923   -1.793989   -0.574944
     22          8           0        3.570365    4.479165   -0.175919
     23          8           0       -0.459848    2.512219    0.568400
     24          6           0        0.884305    4.781758    0.336072
     25          1           0        0.108347    4.873463   -0.424059
     26          1           0        0.415356    4.861579    1.316755
     27          1           0        1.636259    5.553760    0.208142
     28          6           0        5.339729   -4.168008   -0.276798
     29          1           0        5.151574   -4.711578    0.648984
     30          1           0        4.917736   -4.739395   -1.104001
     31          1           0        6.404803   -4.019146   -0.422770
     32          6           0       -0.839417   -0.241785    0.581882
     33          6           0       -1.497783   -0.431898    1.765613
     34         16           0       -1.939588   -0.176419   -0.762469
     35          6           0       -2.908832   -0.498219    1.599467
     36          1           0       -0.990468   -0.496241    2.717476
     37          6           0       -3.335848   -0.382154    0.286644
     38          8           0       -3.826637   -0.676917    2.590808
     39          6           0       -4.686445   -0.431162   -0.217661
     40          6           0       -3.366695   -0.670781    3.936833
     41          6           0       -5.107940   -0.325473   -1.534720
     42         16           0       -6.087126   -0.636040    0.825719
     43          1           0       -4.254793   -0.780085    4.557096
     44          1           0       -2.687454   -1.508494    4.128201
     45          1           0       -2.866621    0.272801    4.179018
     46          6           0       -6.518798   -0.404423   -1.705968
     47          8           0       -4.182704   -0.157379   -2.521970
     48          6           0       -7.170527   -0.571807   -0.516523
     49          1           0       -7.025085   -0.341004   -2.658178
     50          6           0       -4.644417   -0.087303   -3.865288
     51          1           0       -8.233130   -0.661742   -0.351764
     52          1           0       -5.306749    0.772376   -4.012484
     53          1           0       -3.755186    0.033203   -4.481898
     54          1           0       -5.164667   -1.006873   -4.153538
 ---------------------------------------------------------------------

 The electronic state is 1-A.
 Alpha  occ. eigenvalues --  -88.87564 -88.87341 -19.16103 -19.16103 -19.12899
 Alpha  occ. eigenvalues --  -19.12836 -19.12543 -19.12473 -14.39030 -14.38701
 Alpha  occ. eigenvalues --  -10.31526 -10.31313 -10.31174 -10.31151 -10.23912
 Alpha  occ. eigenvalues --  -10.23619 -10.23538 -10.23504 -10.23494 -10.23314
 Alpha  occ. eigenvalues --  -10.23187 -10.23179 -10.22955 -10.22897 -10.22875
 Alpha  occ. eigenvalues --  -10.21947 -10.21865 -10.21858 -10.21359 -10.21349
 Alpha  occ. eigenvalues --  -10.21071 -10.20809 -10.20656 -10.19817 -10.18256
 Alpha  occ. eigenvalues --  -10.17970  -7.96107  -7.95896  -5.92434  -5.92205
 Alpha  occ. eigenvalues --   -5.92042  -5.91817  -5.91644  -5.91465  -1.09138
 Alpha  occ. eigenvalues --   -1.08927  -1.07653  -1.07575  -1.07339  -1.07098
 Alpha  occ. eigenvalues --   -0.96703  -0.96326  -0.93100  -0.89644  -0.88176
 Alpha  occ. eigenvalues --   -0.86838  -0.84886  -0.80498  -0.79025  -0.77100
 Alpha  occ. eigenvalues --   -0.75801  -0.75590  -0.74426  -0.73000  -0.72536
 Alpha  occ. eigenvalues --   -0.71743  -0.69809  -0.68609  -0.67554  -0.66417
 Alpha  occ. eigenvalues --   -0.65890  -0.65061  -0.60810  -0.59460  -0.58562
 Alpha  occ. eigenvalues --   -0.57837  -0.56550  -0.55597  -0.55456  -0.54047
 Alpha  occ. eigenvalues --   -0.53925  -0.52122  -0.50632  -0.50257  -0.50097
 Alpha  occ. eigenvalues --   -0.49121  -0.49036  -0.48882  -0.48053  -0.47806
 Alpha  occ. eigenvalues --   -0.47652  -0.47497  -0.47011  -0.46643  -0.45557
 Alpha  occ. eigenvalues --   -0.45343  -0.45098  -0.44883  -0.44617  -0.44117
 Alpha  occ. eigenvalues --   -0.43072  -0.42838  -0.42471  -0.42023  -0.41796
 Alpha  occ. eigenvalues --   -0.41552  -0.41208  -0.40998  -0.40658  -0.40264
 Alpha  occ. eigenvalues --   -0.39991  -0.38834  -0.38122  -0.37877  -0.36865
 Alpha  occ. eigenvalues --   -0.35823  -0.35502  -0.33621  -0.33192  -0.33052
 Alpha  occ. eigenvalues --   -0.32862  -0.32724  -0.31416  -0.30501  -0.30050
 Alpha  occ. eigenvalues --   -0.29546  -0.29325  -0.28817  -0.28738  -0.27225
 Alpha  occ. eigenvalues --   -0.26792  -0.24125  -0.23735  -0.18577
 Alpha virt. eigenvalues --   -0.13575  -0.07292  -0.06181  -0.05114  -0.04321
 Alpha virt. eigenvalues --   -0.01141  -0.00061  -0.00008   0.00234   0.00524
 Alpha virt. eigenvalues --    0.00621   0.00799   0.01058   0.01165   0.01711

 Mulliken charges:
               1
     1  C    0.380658
     2  C    0.075760
     3  C    0.167303
     4  C    0.227187
     5  C    0.245638
     6  C   -0.729268
     7  C    0.197978
     8  C   -0.025972
     9  C    0.493264
    10  C   -0.257912
    11  C    0.261961
    12  C    0.229553
    13  C   -0.548792
    14  C   -0.640408
    15  H    0.162238
    16  H    0.163495
    17  H    0.164348
    18  N   -0.160715
    19  N   -0.146457
    20  O   -0.266577
    21  O   -0.269113
    22  O   -0.269003
    23  O   -0.111190
    24  C   -0.215614
    25  H    0.179688
    26  H    0.176004
    27  H    0.183967
    28  C   -0.200596
    29  H    0.175056
    30  H    0.176659
    31  H    0.183081
    32  C    0.415332
    33  C   -0.693103
    34  S   -0.133024
    35  C   -0.278786
    36  H    0.111487
    37  C    0.235021
    38  O   -0.123250
    39  C    0.942611
    40  C   -0.241070
    41  C    0.043031
    42  S   -0.263385
    43  H    0.164807
    44  H    0.143433
    45  H    0.151187
    46  C   -0.507301
    47  O   -0.150629
    48  C   -0.316500
    49  H    0.128154
    50  C   -0.234431
    51  H    0.156510
    52  H    0.142684
    53  H    0.162007
    54  H    0.142990
 Sum of Mulliken charges =  -0.00000

 Dipole moment (field-independent basis, Debye):
    X=             -1.1639    Y=              0.1055    Z=              0.0700  Tot=              1.1708
 Quadrupole moment (field-independent basis, Debye-Ang):
   XX=           -221.3399   YY=           -234.3990   ZZ=           -196.2934
   XY=             -3.7793   XZ=             10.2000   YZ=             -0.9002

 Normal termination of Gaussian 16 at Sun Nov 29 14:02:13 2020.
