 Gaussian 16, Revision C.01,
 Gaussian 16:  ES64L-G16RevC.01  3-Jul-2019

 -------------------------------------
 # opt=modredundant b3lyp/6-311+g(d,p)
 -------------------------------------

 -----------
 NDI_120.pdb
 -----------
 Symbolic Z-matrix:
 Charge =  0 Multiplicity = 1

 SCF Done:  E(RB3LYP) =  -2359.33162206     A.U. after   19 cycles
 SCF Done:  E(RB3LYP) =  -2359.33434424     A.U. after   18 cycles
 SCF Done:  E(RB3LYP) =  -2359.33521516     A.U. after   14 cycles
 SCF Done:  E(RB3LYP) =  -2359.33553282     A.U. after   12 cycles
 SCF Done:  E(RB3LYP) =  -2359.33556651     A.U. after   12 cycles
 SCF Done:  E(RB3LYP) =  -2359.33558622     A.U. after   11 cycles
 SCF Done:  E(RB3LYP) =  -2359.33558935     A.U. after   11 cycles
 SCF Done:  E(RB3LYP) =  -2359.33559006     A.U. after   11 cycles
 SCF Done:  E(RB3LYP) =  -2359.33559017     A.U. after   10 cycles
 SCF Done:  E(RB3LYP) =  -2359.33559027     A.U. after    9 cycles
 SCF Done:  E(RB3LYP) =  -2359.33559029     A.U. after    9 cycles
 Optimization completed.
    -- Stationary point found.

                         Standard orientation:
 ---------------------------------------------------------------------
 Center     Atomic      Atomic             Coordinates (Angstroms)
 Number     Number       Type             X           Y           Z
 ---------------------------------------------------------------------
      1          6           0        3.431223   -2.750683    0.390614
      2          6           0        2.719584   -1.473466    0.121600
      3          6           0        3.422347   -0.247733    0.140723
      4          6           0        4.806451   -0.215409    0.418468
      5          6           0        5.544999   -1.473796    0.710463
      6          6           0        1.367397   -1.485972   -0.130805
      7          6           0        2.720444    0.954849   -0.147414
      8          6           0        1.322501    0.925434   -0.415086
      9          6           0        0.631441   -0.295563   -0.368359
     10          6           0        0.665696    2.183071   -0.876200
     11          6           0        2.783281    3.450063   -0.500143
     12          6           0        3.451265    2.168190   -0.162898
     13          6           0        4.807342    2.178338    0.119747
     14          6           0        5.488197    0.989238    0.413911
     15          1           0        6.548697    0.992450    0.631230
     16          1           0        5.328790    3.127028    0.101972
     17          1           0        0.842572   -2.432611   -0.109935
     18          7           0        1.437491    3.360531   -0.862468
     19          7           0        4.800289   -2.664377    0.672338
     20          8           0        2.872213   -3.831444    0.375876
     21          8           0        6.734145   -1.480171    0.966445
     22          8           0        3.374078    4.515170   -0.483139
     23          8           0       -0.485372    2.240773   -1.259807
     24          6           0        0.743126    4.585889   -1.284792
     25          1           0        0.378800    4.469554   -2.305508
     26          1           0       -0.112655    4.767350   -0.634257
     27          1           0        1.450221    5.406809   -1.221670
     28          6           0        5.489059   -3.933869    0.947322
     29          1           0        5.016776   -4.431481    1.794358
     30          1           0        5.416184   -4.588443    0.078401
     31          1           0        6.527834   -3.709272    1.167302
     32          6           0       -0.824340   -0.462345   -0.514421
     33          6           0       -1.474196   -1.195431   -1.476814
     34         16           0       -1.940395    0.191440    0.648966
     35          6           0       -2.880196   -1.207575   -1.298449
     36          1           0       -0.957833   -1.677467   -2.294645
     37          6           0       -3.319364   -0.512442   -0.178115
     38          8           0       -3.790876   -1.815945   -2.106817
     39          6           0       -4.669239   -0.374637    0.303422
     40          6           0       -3.304298   -2.631299   -3.167108
     41          6           0       -5.105689    0.316703    1.425938
     42         16           0       -6.051889   -1.102855   -0.504630
     43          1           0       -4.184999   -3.051855   -3.649392
     44          1           0       -2.741480   -2.038108   -3.895430
     45          1           0       -2.675056   -3.441994   -2.785151
     46          6           0       -6.512388    0.266662    1.632744
     47          8           0       -4.196784    0.958413    2.210069
     48          6           0       -7.145689   -0.465157    0.667449
     49          1           0       -7.029129    0.745898    2.451399
     50          6           0       -4.677766    1.689644    3.332214
     51          1           0       -8.202367   -0.664739    0.577341
     52          1           0       -5.182876    1.030781    4.046187
     53          1           0       -3.799008    2.126558    3.803394
     54          1           0       -5.358748    2.488508    3.020859
 ---------------------------------------------------------------------

 The electronic state is 1-A.
 Alpha  occ. eigenvalues --  -88.87840 -88.87826 -19.16613 -19.16544 -19.12629
 Alpha  occ. eigenvalues --  -19.12586 -19.12111 -19.11997 -14.38782 -14.38307
 Alpha  occ. eigenvalues --  -10.31244 -10.31065 -10.30741 -10.30715 -10.24120
 Alpha  occ. eigenvalues --  -10.24107 -10.23680 -10.23553 -10.23482 -10.23137
 Alpha  occ. eigenvalues --  -10.22948 -10.22905 -10.22561 -10.22540 -10.22421
 Alpha  occ. eigenvalues --  -10.21688 -10.21662 -10.21491 -10.21488 -10.21427
 Alpha  occ. eigenvalues --  -10.21169 -10.21166 -10.20777 -10.20367 -10.18698
 Alpha  occ. eigenvalues --  -10.18438  -7.96392  -7.96380  -5.92718  -5.92689
 Alpha  occ. eigenvalues --   -5.92326  -5.92301  -5.91948  -5.91927  -1.08870
 Alpha  occ. eigenvalues --   -1.08481  -1.08156  -1.08064  -1.07066  -1.06637
 Alpha  occ. eigenvalues --   -0.96431  -0.95927  -0.92733  -0.89962  -0.88442
 Alpha  occ. eigenvalues --   -0.86780  -0.84524  -0.80446  -0.78679  -0.77363
 Alpha  occ. eigenvalues --   -0.76138  -0.75335  -0.74884  -0.72935  -0.72624
 Alpha  occ. eigenvalues --   -0.71631  -0.70166  -0.68740  -0.67278  -0.66092
 Alpha  occ. eigenvalues --   -0.65638  -0.64931  -0.60831  -0.59687  -0.58601
 Alpha  occ. eigenvalues --   -0.57575  -0.56666  -0.55928  -0.55255  -0.54450
 Alpha  occ. eigenvalues --   -0.53841  -0.51860  -0.50369  -0.49990  -0.49813
 Alpha  occ. eigenvalues --   -0.49420  -0.48776  -0.48675  -0.48406  -0.48145
 Alpha  occ. eigenvalues --   -0.47838  -0.47335  -0.46730  -0.46475  -0.45701
 Alpha  occ. eigenvalues --   -0.45310  -0.45014  -0.44827  -0.44486  -0.44027
 Alpha  occ. eigenvalues --   -0.42867  -0.42532  -0.42221  -0.42112  -0.41711
 Alpha  occ. eigenvalues --   -0.41429  -0.41323  -0.41187  -0.40674  -0.40029
 Alpha  occ. eigenvalues --   -0.39649  -0.38934  -0.38439  -0.37798  -0.37262
 Alpha  occ. eigenvalues --   -0.36083  -0.35669  -0.34003  -0.33566  -0.33404
 Alpha  occ. eigenvalues --   -0.33128  -0.32394  -0.31140  -0.30231  -0.29859
 Alpha  occ. eigenvalues --   -0.29345  -0.29041  -0.28749  -0.28270  -0.27466
 Alpha  occ. eigenvalues --   -0.26375  -0.24509  -0.24053  -0.18963
 Alpha virt. eigenvalues --   -0.13283  -0.07098  -0.06243  -0.04910  -0.04118
 Alpha virt. eigenvalues --   -0.00936  -0.00340  -0.00213   0.00108   0.00624
 Alpha virt. eigenvalues --    0.00653   0.01015   0.01140   0.01300   0.01839

 Mulliken charges:
               1
     1  C    0.341721
     2  C   -0.032322
     3  C    0.170655
     4  C    0.221814
     5  C    0.233491
     6  C   -0.411204
     7  C    0.210552
     8  C   -0.014909
     9  C    0.291872
    10  C   -0.312138
    11  C    0.267358
    12  C    0.119613
    13  C   -0.457423
    14  C   -0.623916
    15  H    0.160742
    16  H    0.162038
    17  H    0.163915
    18  N   -0.120837
    19  N   -0.141796
    20  O   -0.274325
    21  O   -0.271097
    22  O   -0.276644
    23  O   -0.175901
    24  C   -0.183678
    25  H    0.177103
    26  H    0.178580
    27  H    0.183192
    28  C   -0.197834
    29  H    0.175301
    30  H    0.174232
    31  H    0.182806
    32  C    0.444811
    33  C   -0.514320
    34  S   -0.399552
    35  C   -0.153362
    36  H    0.121510
    37  C    0.398701
    38  O   -0.130165
    39  C    0.846958
    40  C   -0.228055
    41  C    0.017292
    42  S   -0.279180
    43  H    0.165378
    44  H    0.145867
    45  H    0.150695
    46  C   -0.571189
    47  O   -0.142377
    48  C   -0.297206
    49  H    0.129807
    50  C   -0.236661
    51  H    0.158286
    52  H    0.143092
    53  H    0.163818
    54  H    0.144886
 Sum of Mulliken charges =  -0.00000

 Dipole moment (field-independent basis, Debye):
    X=             -2.6080    Y=             -0.3637    Z=              0.2241  Tot=              2.6428
 Quadrupole moment (field-independent basis, Debye-Ang):
   XX=           -218.1490   YY=           -227.5177   ZZ=           -204.7184
   XY=             -6.6764   XZ=            -11.0030   YZ=             13.3163

 Normal termination of Gaussian 16 at Sun Nov 29 12:52:26 2020.
