 Gaussian 16, Revision C.01,
 Gaussian 16:  ES64L-G16RevC.01  3-Jul-2019

 -------------------------------------
 # opt=modredundant b3lyp/6-311+g(d,p)
 -------------------------------------

 ----------
 NDI_50.pdb
 ----------
 Symbolic Z-matrix:
 Charge =  0 Multiplicity = 1

 SCF Done:  E(RB3LYP) =  -2359.33324088     A.U. after   17 cycles
 SCF Done:  E(RB3LYP) =  -2359.33640374     A.U. after   16 cycles
 SCF Done:  E(RB3LYP) =  -2359.33707828     A.U. after   16 cycles
 SCF Done:  E(RB3LYP) =  -2359.33757517     A.U. after   13 cycles
 SCF Done:  E(RB3LYP) =  -2359.33766783     A.U. after   13 cycles
 SCF Done:  E(RB3LYP) =  -2359.33769350     A.U. after   13 cycles
 SCF Done:  E(RB3LYP) =  -2359.33771971     A.U. after   12 cycles
 SCF Done:  E(RB3LYP) =  -2359.33772635     A.U. after   11 cycles
 SCF Done:  E(RB3LYP) =  -2359.33772712     A.U. after   10 cycles
 SCF Done:  E(RB3LYP) =  -2359.33772790     A.U. after    9 cycles
 SCF Done:  E(RB3LYP) =  -2359.33772807     A.U. after    9 cycles
 Optimization completed.
    -- Stationary point found.

                         Standard orientation:
 ---------------------------------------------------------------------
 Center     Atomic      Atomic             Coordinates (Angstroms)
 Number     Number       Type             X           Y           Z
 ---------------------------------------------------------------------
      1          6           0       -2.638279   -2.949306    0.561522
      2          6           0       -2.293276   -1.521982    0.325968
      3          6           0       -3.310499   -0.566794    0.100973
      4          6           0       -4.666264   -0.955184    0.085645
      5          6           0       -5.046795   -2.375319    0.313644
      6          6           0       -0.977460   -1.136680    0.330497
      7          6           0       -2.939912    0.787577   -0.128674
      8          6           0       -1.567796    1.181478   -0.109814
      9          6           0       -0.566704    0.217009    0.150880
     10          6           0       -1.247928    2.596891   -0.442191
     11          6           0       -3.674676    3.133079   -0.687007
     12          6           0       -3.979576    1.715232   -0.390242
     13          6           0       -5.307367    1.314340   -0.395720
     14          6           0       -5.657643   -0.018064   -0.155250
     15          1           0       -6.692074   -0.336470   -0.163403
     16          1           0       -6.064841    2.060542   -0.599621
     17          1           0       -0.230057   -1.893908    0.527773
     18          7           0       -2.319764    3.464595   -0.727804
     19          7           0       -3.996826   -3.284024    0.526224
     20          8           0       -1.799402   -3.802210    0.784829
     21          8           0       -6.207143   -2.740935    0.315061
     22          8           0       -4.544752    3.960659   -0.896840
     23          8           0       -0.117862    3.047955   -0.495941
     24          6           0       -1.951739    4.848116   -1.061593
     25          1           0       -1.407533    5.298975   -0.231304
     26          1           0       -1.304422    4.854644   -1.938421
     27          1           0       -2.867838    5.396124   -1.257253
     28          6           0       -4.325614   -4.697810    0.758313
     29          1           0       -3.821500   -5.317311    0.016584
     30          1           0       -3.983104   -4.999077    1.748749
     31          1           0       -5.402501   -4.807458    0.679612
     32          6           0        0.875048    0.454245    0.253913
     33          6           0        1.570681    1.389435    0.987946
     34         16           0        1.977038   -0.707330   -0.462882
     35          6           0        2.964668    1.188212    0.968672
     36          1           0        1.086607    2.195918    1.513580
     37          6           0        3.379504    0.093658    0.210085
     38          8           0        3.901148    1.963478    1.577606
     39          6           0        4.724243   -0.336786   -0.052845
     40          6           0        3.448671    3.012159    2.429533
     41          6           0        5.133061   -1.449747   -0.780221
     42         16           0        6.140508    0.526172    0.535986
     43          1           0        4.346654    3.478940    2.830295
     44          1           0        2.870853    3.753378    1.868563
     45          1           0        2.844257    2.616218    3.252110
     46          6           0        6.543717   -1.606470   -0.862042
     47          8           0        4.196349   -2.267093   -1.327680
     48          6           0        7.207507   -0.612278   -0.197976
     49          1           0        7.042274   -2.411298   -1.382034
     50          6           0        4.640773   -3.380668   -2.097003
     51          1           0        8.274546   -0.488211   -0.094274
     52          1           0        5.229718   -4.071912   -1.485717
     53          1           0        3.739170   -3.882580   -2.443143
     54          1           0        5.230415   -3.052875   -2.959077
 ---------------------------------------------------------------------

 The electronic state is 1-A.
 Alpha  occ. eigenvalues --  -88.88379 -88.88368 -19.17173 -19.16824 -19.12350
 Alpha  occ. eigenvalues --  -19.12307 -19.11691 -19.11644 -14.38517 -14.38047
 Alpha  occ. eigenvalues --  -10.30952 -10.30782 -10.30532 -10.30275 -10.24789
 Alpha  occ. eigenvalues --  -10.24523 -10.23902 -10.23750 -10.23570 -10.22843
 Alpha  occ. eigenvalues --  -10.22580 -10.22456 -10.22274 -10.22167 -10.22162
 Alpha  occ. eigenvalues --  -10.21954 -10.21915 -10.21734 -10.21311 -10.20992
 Alpha  occ. eigenvalues --  -10.20985 -10.20966 -10.20932 -10.20631 -10.18957
 Alpha  occ. eigenvalues --  -10.18850  -7.96941  -7.96921  -5.93259  -5.93230
 Alpha  occ. eigenvalues --   -5.92870  -5.92841  -5.92489  -5.92487  -1.08722
 Alpha  occ. eigenvalues --   -1.08602  -1.08388  -1.08168  -1.06788  -1.06263
 Alpha  occ. eigenvalues --   -0.96165  -0.95605  -0.92346  -0.90354  -0.88789
 Alpha  occ. eigenvalues --   -0.86578  -0.84157  -0.80411  -0.78352  -0.77682
 Alpha  occ. eigenvalues --   -0.76426  -0.75331  -0.75090  -0.73183  -0.72381
 Alpha  occ. eigenvalues --   -0.71776  -0.70349  -0.68821  -0.67070  -0.65792
 Alpha  occ. eigenvalues --   -0.65541  -0.64614  -0.61087  -0.59867  -0.58558
 Alpha  occ. eigenvalues --   -0.57329  -0.56737  -0.56377  -0.55263  -0.54807
 Alpha  occ. eigenvalues --   -0.53456  -0.51615  -0.50209  -0.49885  -0.49693
 Alpha  occ. eigenvalues --   -0.49387  -0.48792  -0.48626  -0.48463  -0.48369
 Alpha  occ. eigenvalues --   -0.48126  -0.47001  -0.46518  -0.46249  -0.45857
 Alpha  occ. eigenvalues --   -0.45587  -0.44926  -0.44460  -0.44197  -0.43637
 Alpha  occ. eigenvalues --   -0.42735  -0.42560  -0.42325  -0.42015  -0.41810
 Alpha  occ. eigenvalues --   -0.41615  -0.41201  -0.41105  -0.40458  -0.39713
 Alpha  occ. eigenvalues --   -0.39570  -0.39128  -0.38949  -0.37678  -0.37393
 Alpha  occ. eigenvalues --   -0.36420  -0.35716  -0.34332  -0.33980  -0.33729
 Alpha  occ. eigenvalues --   -0.33495  -0.32061  -0.30962  -0.30329  -0.29744
 Alpha  occ. eigenvalues --   -0.29247  -0.28828  -0.28618  -0.28030  -0.27262
 Alpha  occ. eigenvalues --   -0.26079  -0.24701  -0.24558  -0.19389
 Alpha virt. eigenvalues --   -0.13010  -0.07232  -0.06382  -0.04578  -0.03862
 Alpha virt. eigenvalues --   -0.00845  -0.00430  -0.00300   0.00048   0.00463
 Alpha virt. eigenvalues --    0.00765   0.01113   0.01485   0.01487   0.01802

 Mulliken charges:
               1
     1  C    0.309025
     2  C   -0.081315
     3  C    0.156308
     4  C    0.197395
     5  C    0.239566
     6  C   -0.476942
     7  C    0.202756
     8  C    0.284476
     9  C    0.561009
    10  C   -0.379828
    11  C    0.199124
    12  C    0.168136
    13  C   -0.479415
    14  C   -0.577077
    15  H    0.158855
    16  H    0.160969
    17  H    0.184804
    18  N   -0.152299
    19  N   -0.142892
    20  O   -0.277720
    21  O   -0.269464
    22  O   -0.276661
    23  O   -0.196992
    24  C   -0.209379
    25  H    0.170424
    26  H    0.176301
    27  H    0.182643
    28  C   -0.198062
    29  H    0.173630
    30  H    0.174690
    31  H    0.182431
    32  C    0.041214
    33  C   -0.503618
    34  S   -0.536162
    35  C   -0.132696
    36  H    0.139438
    37  C    0.728842
    38  O   -0.131740
    39  C    0.777898
    40  C   -0.231388
    41  C   -0.062856
    42  S   -0.257343
    43  H    0.165325
    44  H    0.154780
    45  H    0.146925
    46  C   -0.568277
    47  O   -0.131764
    48  C   -0.273614
    49  H    0.131821
    50  C   -0.241347
    51  H    0.160902
    52  H    0.144985
    53  H    0.167785
    54  H    0.146393
 Sum of Mulliken charges =  -0.00000

 Dipole moment (field-independent basis, Debye):
    X=              4.2308    Y=             -0.6596    Z=              0.2434  Tot=              4.2888
 Quadrupole moment (field-independent basis, Debye-Ang):
   XX=           -218.3765   YY=           -216.1734   ZZ=           -213.9704
   XY=             -4.2318   XZ=             -5.0763   YZ=             16.5284

 Normal termination of Gaussian 16 at Sun Nov 29 12:48:43 2020.
