 Gaussian 16, Revision C.01,
 Gaussian 16:  ES64L-G16RevC.01  3-Jul-2019

 -------------------------------------
 # opt=modredundant b3lyp/6-311+g(d,p)
 -------------------------------------

 ----------
 NDI_60.pdb
 ----------
 Symbolic Z-matrix:
 Charge =  0 Multiplicity = 1

 SCF Done:  E(RB3LYP) =  -2359.33180664     A.U. after   17 cycles
 SCF Done:  E(RB3LYP) =  -2359.33565771     A.U. after   16 cycles
 SCF Done:  E(RB3LYP) =  -2359.33645881     A.U. after   16 cycles
 SCF Done:  E(RB3LYP) =  -2359.33674272     A.U. after   13 cycles
 SCF Done:  E(RB3LYP) =  -2359.33678998     A.U. after   12 cycles
 SCF Done:  E(RB3LYP) =  -2359.33683325     A.U. after   12 cycles
 SCF Done:  E(RB3LYP) =  -2359.33684152     A.U. after   11 cycles
 SCF Done:  E(RB3LYP) =  -2359.33684608     A.U. after   11 cycles
 SCF Done:  E(RB3LYP) =  -2359.33684718     A.U. after   10 cycles
 SCF Done:  E(RB3LYP) =  -2359.33684781     A.U. after    9 cycles
 SCF Done:  E(RB3LYP) =  -2359.33684798     A.U. after    9 cycles
 SCF Done:  E(RB3LYP) =  -2359.33684803     A.U. after    9 cycles
 Optimization completed.
    -- Stationary point found.

                         Standard orientation:
 ---------------------------------------------------------------------
 Center     Atomic      Atomic             Coordinates (Angstroms)
 Number     Number       Type             X           Y           Z
 ---------------------------------------------------------------------
      1          6           0       -2.698576   -2.921842    0.629355
      2          6           0       -2.323731   -1.505543    0.373600
      3          6           0       -3.319103   -0.541078    0.098021
      4          6           0       -4.680551   -0.908908    0.049783
      5          6           0       -5.090139   -2.317837    0.297174
      6          6           0       -1.001181   -1.139132    0.405549
      7          6           0       -2.924036    0.803369   -0.146834
      8          6           0       -1.548276    1.175469   -0.097104
      9          6           0       -0.572315    0.204580    0.209621
     10          6           0       -1.192598    2.586149   -0.418424
     11          6           0       -3.599956    3.151597   -0.766081
     12          6           0       -3.938975    1.742812   -0.457163
     13          6           0       -5.271202    1.361400   -0.496978
     14          6           0       -5.648173    0.038120   -0.240876
     15          1           0       -6.686813   -0.264783   -0.274309
     16          1           0       -6.011569    2.113554   -0.738420
     17          1           0       -0.265640   -1.899887    0.632178
     18          7           0       -2.239592    3.464922   -0.756804
     19          7           0       -4.061202   -3.236399    0.562281
     20          8           0       -1.880163   -3.782735    0.893050
     21          8           0       -6.255618   -2.665600    0.270918
     22          8           0       -4.449168    3.986991   -1.023174
     23          8           0       -0.054689    3.017435   -0.421105
     24          6           0       -1.839230    4.840674   -1.086011
     25          1           0       -1.325075    5.291503   -0.236800
     26          1           0       -1.154731    4.830563   -1.934117
     27          1           0       -2.738426    5.398981   -1.325903
     28          6           0       -4.418458   -4.639808    0.815067
     29          1           0       -3.903358   -5.282859    0.101478
     30          1           0       -4.108744   -4.924363    1.821099
     31          1           0       -5.494269   -4.735020    0.708023
     32          6           0        0.875059    0.431945    0.312683
     33          6           0        1.571554    1.268863    1.152480
     34         16           0        1.963415   -0.656758   -0.520169
     35          6           0        2.966664    1.060512    1.112105
     36          1           0        1.088715    2.015034    1.763596
     37          6           0        3.373521    0.053646    0.239733
     38          8           0        3.907391    1.758162    1.804210
     39          6           0        4.715740   -0.355028   -0.072489
     40          6           0        3.460415    2.708361    2.766468
     41          6           0        5.115852   -1.386843   -0.913857
     42         16           0        6.138486    0.433469    0.598500
     43          1           0        4.360494    3.120542    3.219160
     44          1           0        2.890410    3.512804    2.290807
     45          1           0        2.850205    2.228447    3.538625
     46          6           0        6.525606   -1.541682   -1.017374
     47          8           0        4.172334   -2.137730   -1.541679
     48          6           0        7.197607   -0.626785   -0.255170
     49          1           0        7.017672   -2.290168   -1.621034
     50          6           0        4.609449   -3.165717   -2.424956
     51          1           0        8.265577   -0.520311   -0.142290
     52          1           0        5.196467   -3.920601   -1.891927
     53          1           0        3.704785   -3.624349   -2.819965
     54          1           0        5.198939   -2.752074   -3.249517
 ---------------------------------------------------------------------

 The electronic state is 1-A.
 Alpha  occ. eigenvalues --  -88.88250 -88.88159 -19.16960 -19.16671 -19.12454
 Alpha  occ. eigenvalues --  -19.12402 -19.11872 -19.11808 -14.38611 -14.38182
 Alpha  occ. eigenvalues --  -10.31061 -10.30878 -10.30654 -10.30463 -10.24528
 Alpha  occ. eigenvalues --  -10.24345 -10.23763 -10.23752 -10.23495 -10.22970
 Alpha  occ. eigenvalues --  -10.22753 -10.22632 -10.22325 -10.22310 -10.22119
 Alpha  occ. eigenvalues --  -10.21965 -10.21820 -10.21520 -10.21417 -10.21186
 Alpha  occ. eigenvalues --  -10.21133 -10.21036 -10.20748 -10.20722 -10.18758
 Alpha  occ. eigenvalues --  -10.18747  -7.96808  -7.96712  -5.93128  -5.93021
 Alpha  occ. eigenvalues --   -5.92738  -5.92632  -5.92354  -5.92280  -1.08700
 Alpha  occ. eigenvalues --   -1.08500  -1.08316  -1.08225  -1.06890  -1.06430
 Alpha  occ. eigenvalues --   -0.96263  -0.95753  -0.92496  -0.90207  -0.88654
 Alpha  occ. eigenvalues --   -0.86659  -0.84307  -0.80406  -0.78478  -0.77569
 Alpha  occ. eigenvalues --   -0.76306  -0.75206  -0.75150  -0.73052  -0.72457
 Alpha  occ. eigenvalues --   -0.71798  -0.70231  -0.68791  -0.67165  -0.65915
 Alpha  occ. eigenvalues --   -0.65601  -0.64706  -0.61008  -0.59768  -0.58582
 Alpha  occ. eigenvalues --   -0.57411  -0.56699  -0.56200  -0.55360  -0.54645
 Alpha  occ. eigenvalues --   -0.53534  -0.51714  -0.50249  -0.49869  -0.49794
 Alpha  occ. eigenvalues --   -0.49449  -0.48668  -0.48625  -0.48545  -0.48260
 Alpha  occ. eigenvalues --   -0.48032  -0.47104  -0.46606  -0.46308  -0.45825
 Alpha  occ. eigenvalues --   -0.45447  -0.44998  -0.44582  -0.44322  -0.43769
 Alpha  occ. eigenvalues --   -0.42692  -0.42552  -0.42313  -0.42038  -0.41875
 Alpha  occ. eigenvalues --   -0.41441  -0.41301  -0.41191  -0.40554  -0.39721
 Alpha  occ. eigenvalues --   -0.39665  -0.39144  -0.38803  -0.37636  -0.37370
 Alpha  occ. eigenvalues --   -0.36264  -0.35630  -0.34186  -0.33844  -0.33657
 Alpha  occ. eigenvalues --   -0.33348  -0.32202  -0.31053  -0.30332  -0.29799
 Alpha  occ. eigenvalues --   -0.29298  -0.28954  -0.28688  -0.28155  -0.27284
 Alpha  occ. eigenvalues --   -0.26182  -0.24552  -0.24454  -0.19232
 Alpha virt. eigenvalues --   -0.13116  -0.07107  -0.06369  -0.04727  -0.04020
 Alpha virt. eigenvalues --   -0.00888  -0.00357  -0.00280   0.00077   0.00552
 Alpha virt. eigenvalues --    0.00705   0.01053   0.01328   0.01431   0.01798

 Mulliken charges:
               1
     1  C    0.351564
     2  C   -0.086178
     3  C    0.156704
     4  C    0.195784
     5  C    0.251621
     6  C   -0.564336
     7  C    0.196378
     8  C    0.226398
     9  C    0.614041
    10  C   -0.404348
    11  C    0.186107
    12  C    0.162500
    13  C   -0.471616
    14  C   -0.569347
    15  H    0.159511
    16  H    0.161162
    17  H    0.185531
    18  N   -0.160609
    19  N   -0.143932
    20  O   -0.275507
    21  O   -0.269557
    22  O   -0.275858
    23  O   -0.174617
    24  C   -0.214825
    25  H    0.171685
    26  H    0.176957
    27  H    0.182811
    28  C   -0.198426
    29  H    0.174049
    30  H    0.175042
    31  H    0.182503
    32  C    0.026698
    33  C   -0.439188
    34  S   -0.493585
    35  C   -0.083622
    36  H    0.134284
    37  C    0.700337
    38  O   -0.135046
    39  C    0.748001
    40  C   -0.229539
    41  C   -0.070525
    42  S   -0.262078
    43  H    0.165238
    44  H    0.152585
    45  H    0.146226
    46  C   -0.554759
    47  O   -0.134040
    48  C   -0.279121
    49  H    0.131032
    50  C   -0.240815
    51  H    0.160000
    52  H    0.144248
    53  H    0.166344
    54  H    0.146138
 Sum of Mulliken charges =  -0.00000

 Dipole moment (field-independent basis, Debye):
    X=              3.5833    Y=             -0.5774    Z=              0.2040  Tot=              3.6352
 Quadrupole moment (field-independent basis, Debye-Ang):
   XX=           -219.3974   YY=           -218.7179   ZZ=           -211.1558
   XY=             -3.8829   XZ=             -6.2510   YZ=             17.2528

 Normal termination of Gaussian 16 at Sun Nov 29 12:46:08 2020.
