 Gaussian 16, Revision C.01,
 Gaussian 16:  ES64L-G16RevC.01  3-Jul-2019

 -------------------------------------
 # opt=modredundant b3lyp/6-311+g(d,p)
 -------------------------------------

 -----------
 NDI_145.pdb
 -----------
 Symbolic Z-matrix:
 Charge =  0 Multiplicity = 1

 SCF Done:  E(RB3LYP) =  -2359.31941778     A.U. after   18 cycles
 SCF Done:  E(RB3LYP) =  -2359.32309729     A.U. after   17 cycles
 SCF Done:  E(RB3LYP) =  -2359.33122143     A.U. after   14 cycles
 SCF Done:  E(RB3LYP) =  -2359.33541322     A.U. after   17 cycles
 SCF Done:  E(RB3LYP) =  -2359.33594306     A.U. after   14 cycles
 SCF Done:  E(RB3LYP) =  -2359.33611806     A.U. after   13 cycles
 SCF Done:  E(RB3LYP) =  -2359.33618106     A.U. after   12 cycles
 SCF Done:  E(RB3LYP) =  -2359.33619501     A.U. after   12 cycles
 SCF Done:  E(RB3LYP) =  -2359.33620240     A.U. after   11 cycles
 SCF Done:  E(RB3LYP) =  -2359.33620421     A.U. after   11 cycles
 SCF Done:  E(RB3LYP) =  -2359.33620500     A.U. after   10 cycles
 SCF Done:  E(RB3LYP) =  -2359.33620514     A.U. after    9 cycles
 SCF Done:  E(RB3LYP) =  -2359.33620519     A.U. after    8 cycles
 Optimization completed.
    -- Stationary point found.

                         Standard orientation:
 ---------------------------------------------------------------------
 Center     Atomic      Atomic             Coordinates (Angstroms)
 Number     Number       Type             X           Y           Z
 ---------------------------------------------------------------------
      1          6           0        3.409868   -2.734275    0.372326
      2          6           0        2.709170   -1.452515    0.097577
      3          6           0        3.413361   -0.227352    0.147493
      4          6           0        4.787963   -0.201054    0.460801
      5          6           0        5.516390   -1.463859    0.756233
      6          6           0        1.365964   -1.462136   -0.181762
      7          6           0        2.715448    0.975587   -0.149165
      8          6           0        1.321986    0.951842   -0.450045
      9          6           0        0.621046   -0.272544   -0.424884
     10          6           0        0.702954    2.205762   -0.958609
     11          6           0        2.803706    3.470059   -0.494234
     12          6           0        3.452353    2.185919   -0.138394
     13          6           0        4.801352    2.192130    0.183092
     14          6           0        5.473540    1.002845    0.486578
     15          1           0        6.527806    1.002429    0.731757
     16          1           0        5.322462    3.141172    0.184876
     17          1           0        0.849769   -2.412605   -0.160817
     18          7           0        1.476691    3.381399   -0.918124
     19          7           0        4.771630   -2.654100    0.684538
     20          8           0        2.847551   -3.813753    0.338656
     21          8           0        6.698663   -1.476965    1.042340
     22          8           0        3.393255    4.535792   -0.447161
     23          8           0       -0.426747    2.269062   -1.405694
     24          6           0        0.808151    4.604702   -1.384287
     25          1           0        0.493223    4.480657   -2.420409
     26          1           0       -0.077719    4.795477   -0.778070
     27          1           0        1.514669    5.423605   -1.293588
     28          6           0        5.452079   -3.927124    0.962578
     29          1           0        4.961028   -4.431996    1.794576
     30          1           0        5.397144   -4.573455    0.086161
     31          1           0        6.486206   -3.706361    1.207029
     32          6           0       -0.825782   -0.469755   -0.538605
     33          6           0       -1.435510   -1.539566   -1.169414
     34         16           0       -1.995182    0.468597    0.348881
     35          6           0       -2.829374   -1.583118   -0.968848
     36          1           0       -0.890344   -2.247297   -1.777179
     37          6           0       -3.314608   -0.574551   -0.136893
     38          8           0       -3.699415   -2.483632   -1.500503
     39          6           0       -4.670616   -0.366293    0.289837
     40          6           0       -3.161004   -3.578469   -2.235019
     41          6           0       -5.155016    0.633514    1.126774
     42         16           0       -6.002331   -1.404377   -0.207511
     43          1           0       -4.012800   -4.189112   -2.528922
     44          1           0       -2.636754   -3.231961   -3.131670
     45          1           0       -2.481496   -4.172740   -1.615435
     46          6           0       -6.556245    0.570478    1.359906
     47          8           0       -4.292920    1.550893    1.636370
     48          6           0       -7.136844   -0.478847    0.703136
     49          1           0       -7.106429    1.262471    1.980489
     50          6           0       -4.820939    2.585433    2.460705
     51          1           0       -8.178600   -0.760784    0.703391
     52          1           0       -5.286371    2.172483    3.361455
     53          1           0       -3.971275    3.204136    2.743444
     54          1           0       -5.548002    3.193207    1.912745
 ---------------------------------------------------------------------

 The electronic state is 1-A.
 Alpha  occ. eigenvalues --  -88.88376 -88.88173 -19.17170 -19.16957 -19.12367
 Alpha  occ. eigenvalues --  -19.12357 -19.11659 -19.11509 -14.38544 -14.37927
 Alpha  occ. eigenvalues --  -10.30968 -10.30831 -10.30325 -10.30248 -10.24800
 Alpha  occ. eigenvalues --  -10.24573 -10.23932 -10.23771 -10.23609 -10.22750
 Alpha  occ. eigenvalues --  -10.22430 -10.22374 -10.22256 -10.22167 -10.22142
 Alpha  occ. eigenvalues --  -10.22066 -10.21898 -10.21732 -10.21423 -10.20998
 Alpha  occ. eigenvalues --  -10.20989 -10.20989 -10.20936 -10.20517 -10.19159
 Alpha  occ. eigenvalues --  -10.18964  -7.96929  -7.96722  -5.93239  -5.93045
 Alpha  occ. eigenvalues --   -5.92850  -5.92648  -5.92497  -5.92263  -1.08737
 Alpha  occ. eigenvalues --   -1.08617  -1.08509  -1.08056  -1.06809  -1.06180
 Alpha  occ. eigenvalues --   -0.96176  -0.95534  -0.92347  -0.90360  -0.88807
 Alpha  occ. eigenvalues --   -0.86598  -0.84136  -0.80479  -0.78319  -0.77623
 Alpha  occ. eigenvalues --   -0.76502  -0.75390  -0.75042  -0.73288  -0.72407
 Alpha  occ. eigenvalues --   -0.71472  -0.70561  -0.68873  -0.67002  -0.65781
 Alpha  occ. eigenvalues --   -0.65431  -0.64755  -0.60955  -0.59953  -0.58579
 Alpha  occ. eigenvalues --   -0.57367  -0.56730  -0.56379  -0.55063  -0.54837
 Alpha  occ. eigenvalues --   -0.53713  -0.51571  -0.50181  -0.49922  -0.49605
 Alpha  occ. eigenvalues --   -0.49347  -0.48832  -0.48654  -0.48527  -0.48400
 Alpha  occ. eigenvalues --   -0.48153  -0.46992  -0.46555  -0.46254  -0.45872
 Alpha  occ. eigenvalues --   -0.45587  -0.44879  -0.44565  -0.44252  -0.43771
 Alpha  occ. eigenvalues --   -0.42856  -0.42418  -0.42208  -0.41971  -0.41775
 Alpha  occ. eigenvalues --   -0.41693  -0.41205  -0.41093  -0.40490  -0.39843
 Alpha  occ. eigenvalues --   -0.39385  -0.39126  -0.38776  -0.37757  -0.37390
 Alpha  occ. eigenvalues --   -0.36506  -0.35931  -0.34310  -0.34060  -0.33608
 Alpha  occ. eigenvalues --   -0.33463  -0.31975  -0.30877  -0.30174  -0.29720
 Alpha  occ. eigenvalues --   -0.29274  -0.28756  -0.28605  -0.27896  -0.27442
 Alpha  occ. eigenvalues --   -0.26030  -0.24896  -0.24286  -0.19373
 Alpha virt. eigenvalues --   -0.12991  -0.07284  -0.06316  -0.04574  -0.03800
 Alpha virt. eigenvalues --   -0.00828  -0.00511  -0.00335  -0.00047   0.00395
 Alpha virt. eigenvalues --    0.00766   0.01100   0.01401   0.01618   0.01958

 Mulliken charges:
               1
     1  C    0.306146
     2  C   -0.006421
     3  C    0.181281
     4  C    0.260914
     5  C    0.200156
     6  C   -0.127710
     7  C    0.186026
     8  C    0.085104
     9  C    0.250207
    10  C   -0.377422
    11  C    0.279070
    12  C    0.102175
    13  C   -0.471821
    14  C   -0.594227
    15  H    0.159048
    16  H    0.160992
    17  H    0.163848
    18  N   -0.097230
    19  N   -0.142803
    20  O   -0.281396
    21  O   -0.269919
    22  O   -0.280089
    23  O   -0.217257
    24  C   -0.177234
    25  H    0.177745
    26  H    0.175427
    27  H    0.181973
    28  C   -0.194162
    29  H    0.174383
    30  H    0.173226
    31  H    0.182149
    32  C    0.143551
    33  C   -0.677204
    34  S   -0.594980
    35  C   -0.042541
    36  H    0.134910
    37  C    0.678791
    38  O   -0.137659
    39  C    0.869822
    40  C   -0.227513
    41  C   -0.000567
    42  S   -0.260570
    43  H    0.166538
    44  H    0.145792
    45  H    0.153857
    46  C   -0.615011
    47  O   -0.132790
    48  C   -0.276535
    49  H    0.131742
    50  C   -0.240651
    51  H    0.160922
    52  H    0.144732
    53  H    0.166346
    54  H    0.146838
 Sum of Mulliken charges =  -0.00000

 Dipole moment (field-independent basis, Debye):
    X=             -4.1822    Y=             -0.6785    Z=              0.5049  Tot=              4.2669
 Quadrupole moment (field-independent basis, Debye-Ang):
   XX=           -214.4183   YY=           -219.7822   ZZ=           -214.1547
   XY=             -9.2563   XZ=            -11.6488   YZ=             13.9855

 Normal termination of Gaussian 16 at Sun Nov 29 15:07:28 2020.
