 Gaussian 16, Revision C.01,
 Gaussian 16:  ES64L-G16RevC.01  3-Jul-2019

 -------------------------------------
 # opt=modredundant b3lyp/6-311+g(d,p)
 -------------------------------------

 ----------
 NDI_20.pdb
 ----------
 Symbolic Z-matrix:
 Charge =  0 Multiplicity = 1

 SCF Done:  E(RB3LYP) =  -2359.32409776     A.U. after   17 cycles
 SCF Done:  E(RB3LYP) =  -2359.31778361     A.U. after   17 cycles
 SCF Done:  E(RB3LYP) =  -2359.33214619     A.U. after   15 cycles
 SCF Done:  E(RB3LYP) =  -2359.33450043     A.U. after   15 cycles
 SCF Done:  E(RB3LYP) =  -2359.33569382     A.U. after   16 cycles
 SCF Done:  E(RB3LYP) =  -2359.33602678     A.U. after   14 cycles
 SCF Done:  E(RB3LYP) =  -2359.33624565     A.U. after   14 cycles
 SCF Done:  E(RB3LYP) =  -2359.33648021     A.U. after   13 cycles
 SCF Done:  E(RB3LYP) =  -2359.33672931     A.U. after   14 cycles
 SCF Done:  E(RB3LYP) =  -2359.33678948     A.U. after   13 cycles
 SCF Done:  E(RB3LYP) =  -2359.33685886     A.U. after   12 cycles
 SCF Done:  E(RB3LYP) =  -2359.33687380     A.U. after   12 cycles
 SCF Done:  E(RB3LYP) =  -2359.33687824     A.U. after   11 cycles
 SCF Done:  E(RB3LYP) =  -2359.33687877     A.U. after   11 cycles
 SCF Done:  E(RB3LYP) =  -2359.33687896     A.U. after   10 cycles
 Optimization completed.
    -- Stationary point found.

                         Standard orientation:
 ---------------------------------------------------------------------
 Center     Atomic      Atomic             Coordinates (Angstroms)
 Number     Number       Type             X           Y           Z
 ---------------------------------------------------------------------
      1          6           0       -2.475182   -3.016548    0.271549
      2          6           0       -2.211729   -1.558761    0.141680
      3          6           0       -3.281224   -0.635411    0.095101
      4          6           0       -4.614121   -1.085291    0.166467
      5          6           0       -4.915369   -2.536290    0.294298
      6          6           0       -0.920248   -1.115936    0.078520
      7          6           0       -2.978049    0.746654   -0.054001
      8          6           0       -1.622180    1.204916   -0.114846
      9          6           0       -0.556177    0.264728   -0.016655
     10          6           0       -1.412494    2.635982   -0.456118
     11          6           0       -3.866186    3.084568   -0.361960
     12          6           0       -4.077063    1.638978   -0.141774
     13          6           0       -5.384528    1.179837   -0.052324
     14          6           0       -5.661879   -0.179510    0.103754
     15          1           0       -6.679205   -0.543758    0.163334
     16          1           0       -6.183528    1.907266   -0.119698
     17          1           0       -0.147612   -1.869043    0.159065
     18          7           0       -2.540859    3.472523   -0.552874
     19          7           0       -3.815897   -3.411394    0.320669
     20          8           0       -1.585390   -3.844017    0.348934
     21          8           0       -6.054913   -2.955872    0.368793
     22          8           0       -4.783312    3.887547   -0.400666
     23          8           0       -0.321459    3.143655   -0.660300
     24          6           0       -2.269119    4.882312   -0.867596
     25          1           0       -1.631754    5.319580   -0.098519
     26          1           0       -1.749863    4.952976   -1.823185
     27          1           0       -3.222001    5.400184   -0.909219
     28          6           0       -4.067129   -4.853858    0.448241
     29          1           0       -3.606663   -5.380518   -0.387634
     30          1           0       -3.626867   -5.225680    1.374034
     31          1           0       -5.141635   -5.006617    0.451137
     32          6           0        0.873568    0.521433    0.124989
     33          6           0        1.579276    1.631767    0.553774
     34         16           0        2.004256   -0.770614   -0.295307
     35          6           0        2.970290    1.444558    0.576409
     36          1           0        1.102910    2.548993    0.846198
     37          6           0        3.395209    0.190592    0.129258
     38          8           0        3.901115    2.359934    0.950686
     39          6           0        4.741881   -0.285114    0.001856
     40          6           0        3.442669    3.594265    1.499261
     41          6           0        5.162106   -1.541396   -0.427990
     42         16           0        6.149005    0.698597    0.391531
     43          1           0        4.338837    4.158617    1.750334
     44          1           0        2.849647    4.152669    0.768767
     45          1           0        2.850864    3.423758    2.404137
     46          6           0        6.573252   -1.708875   -0.442633
     47          8           0        4.235489   -2.467132   -0.778310
     48          6           0        7.225319   -0.581050   -0.025888
     49          1           0        7.080526   -2.613419   -0.744314
     50          6           0        4.688926   -3.735047   -1.246709
     51          1           0        8.290736   -0.432028    0.061201
     52          1           0        5.264423   -4.255860   -0.475067
     53          1           0        3.790999   -4.305545   -1.475808
     54          1           0        5.294137   -3.625136   -2.151976
 ---------------------------------------------------------------------

 The electronic state is 1-A.
 Alpha  occ. eigenvalues --  -88.88818 -88.88628 -19.17609 -19.17149 -19.12153
 Alpha  occ. eigenvalues --  -19.12139 -19.11370 -19.11341 -14.38342 -14.37797
 Alpha  occ. eigenvalues --  -10.30744 -10.30606 -10.30331 -10.29897 -10.25349
 Alpha  occ. eigenvalues --  -10.24883 -10.24173 -10.23896 -10.23703 -10.22913
 Alpha  occ. eigenvalues --  -10.22596 -10.22391 -10.22285 -10.22186 -10.22087
 Alpha  occ. eigenvalues --  -10.21859 -10.21835 -10.21504 -10.21494 -10.21168
 Alpha  occ. eigenvalues --  -10.20838 -10.20596 -10.20518 -10.20474 -10.19380
 Alpha  occ. eigenvalues --  -10.18915  -7.97368  -7.97200  -5.93678  -5.93517
 Alpha  occ. eigenvalues --   -5.93288  -5.93126  -5.92937  -5.92744  -1.09186
 Alpha  occ. eigenvalues --   -1.08721  -1.08419  -1.07920  -1.06598  -1.05957
 Alpha  occ. eigenvalues --   -0.95984  -0.95341  -0.92066  -0.90664  -0.89069
 Alpha  occ. eigenvalues --   -0.86405  -0.83862  -0.80464  -0.78201  -0.77851
 Alpha  occ. eigenvalues --   -0.76670  -0.75632  -0.74899  -0.73488  -0.72228
 Alpha  occ. eigenvalues --   -0.71766  -0.70588  -0.68860  -0.66923  -0.65566
 Alpha  occ. eigenvalues --   -0.65459  -0.64425  -0.61287  -0.60089  -0.58523
 Alpha  occ. eigenvalues --   -0.57261  -0.56797  -0.56662  -0.55278  -0.54967
 Alpha  occ. eigenvalues --   -0.53323  -0.51448  -0.50329  -0.49825  -0.49508
 Alpha  occ. eigenvalues --   -0.49230  -0.49133  -0.48645  -0.48601  -0.48364
 Alpha  occ. eigenvalues --   -0.48169  -0.46965  -0.46454  -0.46156  -0.45927
 Alpha  occ. eigenvalues --   -0.45709  -0.44729  -0.44257  -0.43956  -0.43249
 Alpha  occ. eigenvalues --   -0.43000  -0.42685  -0.42388  -0.41982  -0.41872
 Alpha  occ. eigenvalues --   -0.41599  -0.41027  -0.40942  -0.40297  -0.39883
 Alpha  occ. eigenvalues --   -0.39298  -0.39273  -0.38942  -0.37817  -0.37340
 Alpha  occ. eigenvalues --   -0.36666  -0.36130  -0.34647  -0.34280  -0.33731
 Alpha  occ. eigenvalues --   -0.33620  -0.31805  -0.30799  -0.30404  -0.29624
 Alpha  occ. eigenvalues --   -0.29139  -0.28576  -0.28498  -0.27779  -0.27197
 Alpha  occ. eigenvalues --   -0.25978  -0.24975  -0.24833  -0.19715
 Alpha virt. eigenvalues --   -0.12793  -0.07750  -0.06272  -0.04268  -0.03622
 Alpha virt. eigenvalues --   -0.00829  -0.00461  -0.00318  -0.00057   0.00376
 Alpha virt. eigenvalues --    0.00876   0.01276   0.01444   0.01793   0.01967

 Mulliken charges:
               1
     1  C    0.250869
     2  C    0.029974
     3  C    0.253191
     4  C    0.221760
     5  C    0.235862
     6  C    0.158125
     7  C    0.264151
     8  C    0.380048
     9  C    0.232810
    10  C   -0.752525
    11  C    0.195043
    12  C    0.131689
    13  C   -0.479416
    14  C   -0.598128
    15  H    0.157701
    16  H    0.160898
    17  H    0.168743
    18  N   -0.131667
    19  N   -0.140239
    20  O   -0.285251
    21  O   -0.268682
    22  O   -0.280221
    23  O   -0.245132
    24  C   -0.173853
    25  H    0.168912
    26  H    0.176881
    27  H    0.182619
    28  C   -0.198340
    29  H    0.172611
    30  H    0.174096
    31  H    0.181847
    32  C   -0.161468
    33  C   -0.298516
    34  S   -0.671102
    35  C   -0.367314
    36  H    0.155861
    37  C    0.716389
    38  O   -0.127388
    39  C    0.898454
    40  C   -0.239223
    41  C    0.014380
    42  S   -0.239943
    43  H    0.165953
    44  H    0.160587
    45  H    0.148423
    46  C   -0.598504
    47  O   -0.128322
    48  C   -0.292857
    49  H    0.133640
    50  C   -0.241020
    51  H    0.163196
    52  H    0.146230
    53  H    0.171637
    54  H    0.146530
 Sum of Mulliken charges =  -0.00000

 Dipole moment (field-independent basis, Debye):
    X=              5.5835    Y=             -0.8020    Z=              0.2778  Tot=              5.6476
 Quadrupole moment (field-independent basis, Debye-Ang):
   XX=           -215.9509   YY=           -210.7906   ZZ=           -219.9859
   XY=             -4.8076   XZ=             -0.9687   YZ=             11.5681

 Normal termination of Gaussian 16 at Sun Nov 29 13:57:27 2020.
