 Gaussian 16, Revision C.01,
 Gaussian 16:  ES64L-G16RevC.01  3-Jul-2019

 -------------------------------------
 # opt=modredundant b3lyp/6-311+g(d,p)
 -------------------------------------

 -----------
 NDI_-50.pdb
 -----------
 Symbolic Z-matrix:
 Charge =  0 Multiplicity = 1

 SCF Done:  E(RB3LYP) =  -2359.33685813     A.U. after   17 cycles
 SCF Done:  E(RB3LYP) =  -2359.33720538     A.U. after   14 cycles
 SCF Done:  E(RB3LYP) =  -2359.33781106     A.U. after   13 cycles
 SCF Done:  E(RB3LYP) =  -2359.33790459     A.U. after   13 cycles
 SCF Done:  E(RB3LYP) =  -2359.33791943     A.U. after   12 cycles
 SCF Done:  E(RB3LYP) =  -2359.33792604     A.U. after   11 cycles
 SCF Done:  E(RB3LYP) =  -2359.33792707     A.U. after   12 cycles
 SCF Done:  E(RB3LYP) =  -2359.33792791     A.U. after   10 cycles
 SCF Done:  E(RB3LYP) =  -2359.33792803     A.U. after   10 cycles
 SCF Done:  E(RB3LYP) =  -2359.33792807     A.U. after    9 cycles
 Optimization completed.
    -- Stationary point found.

                         Standard orientation:
 ---------------------------------------------------------------------
 Center     Atomic      Atomic             Coordinates (Angstroms)
 Number     Number       Type             X           Y           Z
 ---------------------------------------------------------------------
      1          6           0        2.668851   -2.957888    0.514784
      2          6           0        2.309352   -1.532366    0.290510
      3          6           0        3.318010   -0.562833    0.088451
      4          6           0        4.678989   -0.932868    0.096013
      5          6           0        5.074456   -2.348098    0.329126
      6          6           0        0.989622   -1.159636    0.300515
      7          6           0        2.934588    0.788618   -0.137105
      8          6           0        1.557995    1.164991   -0.134088
      9          6           0        0.567842    0.191031    0.129042
     10          6           0        1.221820    2.572253   -0.486314
     11          6           0        3.646177    3.150078   -0.654622
     12          6           0        3.965857    1.732476   -0.371615
     13          6           0        5.298623    1.349027   -0.356705
     14          6           0        5.661849    0.019141   -0.120236
     15          1           0        6.700497   -0.285169   -0.109825
     16          1           0        6.050116    2.106922   -0.538410
     17          1           0        0.248648   -1.925035    0.491048
     18          7           0        2.287425    3.462259   -0.723306
     19          7           0        4.033054   -3.270962    0.522182
     20          8           0        1.836156   -3.828626    0.686401
     21          8           0        6.239407   -2.698048    0.351245
     22          8           0        4.508226    3.993234   -0.832861
     23          8           0        0.085820    2.996215   -0.599424
     24          6           0        1.906580    4.840484   -1.064310
     25          1           0        1.298967    4.841535   -1.969185
     26          1           0        1.318173    5.274221   -0.255398
     27          1           0        2.819289    5.407934   -1.215555
     28          6           0        4.376202   -4.681927    0.750721
     29          1           0        3.965923   -5.009254    1.706086
     30          1           0        3.945572   -5.298561   -0.038715
     31          1           0        5.458216   -4.766504    0.750801
     32          6           0       -0.872467    0.424480    0.246886
     33          6           0       -1.554511    1.356101    0.997146
     34         16           0       -1.985930   -0.728335   -0.464047
     35          6           0       -2.949967    1.164481    0.987795
     36          1           0       -1.059926    2.154525    1.526222
     37          6           0       -3.377665    0.077050    0.225963
     38          8           0       -3.874243    1.924891    1.632671
     39          6           0       -4.727193   -0.345199   -0.025627
     40          6           0       -3.425636    3.111467    2.282472
     41          6           0       -5.149173   -1.449028   -0.759178
     42         16           0       -6.132865    0.521212    0.583227
     43          1           0       -4.320678    3.597459    2.666685
     44          1           0       -2.756041    2.874408    3.115751
     45          1           0       -2.918186    3.776815    1.577235
     46          6           0       -6.561537   -1.595549   -0.831323
     47          8           0       -4.222377   -2.263290   -1.327819
     48          6           0       -7.213365   -0.603317   -0.152782
     49          1           0       -7.069554   -2.392023   -1.355011
     50          6           0       -4.679325   -3.406088   -2.045252
     51          1           0       -8.278675   -0.473224   -0.039218
     52          1           0       -5.293481   -3.112868   -2.902695
     53          1           0       -3.783781   -3.914345   -2.397781
     54          1           0       -5.247472   -4.078235   -1.394336
 ---------------------------------------------------------------------

 The electronic state is 1-A.
 Alpha  occ. eigenvalues --  -88.88397 -88.88360 -19.17164 -19.16842 -19.12355
 Alpha  occ. eigenvalues --  -19.12309 -19.11722 -19.11648 -14.38519 -14.38061
 Alpha  occ. eigenvalues --  -10.30957 -10.30784 -10.30542 -10.30305 -10.24778
 Alpha  occ. eigenvalues --  -10.24544 -10.23891 -10.23713 -10.23561 -10.22839
 Alpha  occ. eigenvalues --  -10.22558 -10.22462 -10.22267 -10.22178 -10.22172
 Alpha  occ. eigenvalues --  -10.21939 -10.21927 -10.21728 -10.21327 -10.21009
 Alpha  occ. eigenvalues --  -10.20976 -10.20964 -10.20946 -10.20661 -10.18951
 Alpha  occ. eigenvalues --  -10.18869  -7.96958  -7.96913  -5.93276  -5.93222
 Alpha  occ. eigenvalues --   -5.92887  -5.92833  -5.92505  -5.92481  -1.08712
 Alpha  occ. eigenvalues --   -1.08603  -1.08399  -1.08174  -1.06791  -1.06277
 Alpha  occ. eigenvalues --   -0.96166  -0.95617  -0.92358  -0.90359  -0.88791
 Alpha  occ. eigenvalues --   -0.86588  -0.84167  -0.80417  -0.78363  -0.77678
 Alpha  occ. eigenvalues --   -0.76422  -0.75334  -0.75097  -0.73190  -0.72392
 Alpha  occ. eigenvalues --   -0.71778  -0.70348  -0.68830  -0.67077  -0.65800
 Alpha  occ. eigenvalues --   -0.65546  -0.64619  -0.61093  -0.59872  -0.58559
 Alpha  occ. eigenvalues --   -0.57335  -0.56737  -0.56371  -0.55268  -0.54817
 Alpha  occ. eigenvalues --   -0.53462  -0.51625  -0.50239  -0.49883  -0.49694
 Alpha  occ. eigenvalues --   -0.49381  -0.48787  -0.48632  -0.48471  -0.48373
 Alpha  occ. eigenvalues --   -0.48123  -0.47000  -0.46533  -0.46265  -0.45842
 Alpha  occ. eigenvalues --   -0.45586  -0.44919  -0.44483  -0.44202  -0.43681
 Alpha  occ. eigenvalues --   -0.42745  -0.42540  -0.42348  -0.42002  -0.41818
 Alpha  occ. eigenvalues --   -0.41630  -0.41190  -0.41116  -0.40470  -0.39755
 Alpha  occ. eigenvalues --   -0.39590  -0.39170  -0.38857  -0.37676  -0.37467
 Alpha  occ. eigenvalues --   -0.36421  -0.35732  -0.34348  -0.33974  -0.33748
 Alpha  occ. eigenvalues --   -0.33465  -0.32076  -0.30961  -0.30341  -0.29715
 Alpha  occ. eigenvalues --   -0.29254  -0.28860  -0.28628  -0.28032  -0.27265
 Alpha  occ. eigenvalues --   -0.26079  -0.24694  -0.24575  -0.19378
 Alpha virt. eigenvalues --   -0.13023  -0.07238  -0.06378  -0.04589  -0.03860
 Alpha virt. eigenvalues --   -0.00884  -0.00414  -0.00314   0.00040   0.00467
 Alpha virt. eigenvalues --    0.00755   0.01141   0.01472   0.01495   0.01799

 Mulliken charges:
               1
     1  C    0.313309
     2  C   -0.092130
     3  C    0.148798
     4  C    0.200071
     5  C    0.236521
     6  C   -0.466226
     7  C    0.212645
     8  C    0.279003
     9  C    0.527920
    10  C   -0.369979
    11  C    0.194367
    12  C    0.161559
    13  C   -0.471112
    14  C   -0.581041
    15  H    0.158946
    16  H    0.160831
    17  H    0.182590
    18  N   -0.144953
    19  N   -0.143656
    20  O   -0.278366
    21  O   -0.268823
    22  O   -0.276422
    23  O   -0.194226
    24  C   -0.206454
    25  H    0.176451
    26  H    0.169973
    27  H    0.182525
    28  C   -0.197938
    29  H    0.174223
    30  H    0.174089
    31  H    0.182240
    32  C    0.084552
    33  C   -0.460148
    34  S   -0.533973
    35  C   -0.144315
    36  H    0.133627
    37  C    0.694010
    38  O   -0.133481
    39  C    0.779409
    40  C   -0.240065
    41  C   -0.056845
    42  S   -0.265996
    43  H    0.164789
    44  H    0.143976
    45  H    0.160647
    46  C   -0.582442
    47  O   -0.130323
    48  C   -0.269874
    49  H    0.131856
    50  C   -0.240042
    51  H    0.160810
    52  H    0.145174
    53  H    0.167797
    54  H    0.146125
 Sum of Mulliken charges =  -0.00000

 Dipole moment (field-independent basis, Debye):
    X=             -4.2139    Y=             -0.5236    Z=              0.1895  Tot=              4.2506
 Quadrupole moment (field-independent basis, Debye-Ang):
   XX=           -218.0174   YY=           -215.2253   ZZ=           -215.1578
   XY=              3.7363   XZ=              5.2515   YZ=             15.7576

 Normal termination of Gaussian 16 at Sun Nov 29 12:26:35 2020.
