 Gaussian 16, Revision C.01,
 Gaussian 16:  ES64L-G16RevC.01  3-Jul-2019

 -------------------------------------
 # opt=modredundant b3lyp/6-311+g(d,p)
 -------------------------------------

 ----------
 NDI_55.pdb
 ----------
 Symbolic Z-matrix:
 Charge =  0 Multiplicity = 1

 SCF Done:  E(RB3LYP) =  -2359.33262186     A.U. after   17 cycles
 SCF Done:  E(RB3LYP) =  -2359.33629255     A.U. after   16 cycles
 SCF Done:  E(RB3LYP) =  -2359.33698379     A.U. after   16 cycles
 SCF Done:  E(RB3LYP) =  -2359.33719093     A.U. after   13 cycles
 SCF Done:  E(RB3LYP) =  -2359.33728851     A.U. after   12 cycles
 SCF Done:  E(RB3LYP) =  -2359.33733110     A.U. after   12 cycles
 SCF Done:  E(RB3LYP) =  -2359.33734206     A.U. after   11 cycles
 SCF Done:  E(RB3LYP) =  -2359.33734715     A.U. after   11 cycles
 SCF Done:  E(RB3LYP) =  -2359.33734842     A.U. after   11 cycles
 SCF Done:  E(RB3LYP) =  -2359.33734905     A.U. after    9 cycles
 SCF Done:  E(RB3LYP) =  -2359.33734919     A.U. after    9 cycles
 SCF Done:  E(RB3LYP) =  -2359.33734924     A.U. after    9 cycles
 Optimization completed.
    -- Stationary point found.

                         Standard orientation:
 ---------------------------------------------------------------------
 Center     Atomic      Atomic             Coordinates (Angstroms)
 Number     Number       Type             X           Y           Z
 ---------------------------------------------------------------------
      1          6           0       -2.665212   -2.935652    0.599117
      2          6           0       -2.306761   -1.513623    0.351768
      3          6           0       -3.314202   -0.554962    0.100060
      4          6           0       -4.672556   -0.934458    0.068395
      5          6           0       -5.066151   -2.349253    0.307650
      6          6           0       -0.987841   -1.136536    0.369679
      7          6           0       -2.932725    0.794704   -0.138425
      8          6           0       -1.559030    1.179057   -0.104400
      9          6           0       -0.569291    0.212473    0.180417
     10          6           0       -1.222733    2.592683   -0.430510
     11          6           0       -3.640717    3.140562   -0.729618
     12          6           0       -3.961169    1.727052   -0.425616
     13          6           0       -5.290927    1.334524   -0.448321
     14          6           0       -5.653197    0.006469   -0.198727
     15          1           0       -6.689522   -0.305245   -0.219470
     16          1           0       -6.040712    2.082818   -0.672027
     17          1           0       -0.245583   -1.894625    0.582627
     18          7           0       -2.283172    3.464500   -0.744444
     19          7           0       -4.025589   -3.261711    0.547903
     20          8           0       -1.835579   -3.791585    0.843729
     21          8           0       -6.228821   -2.707128    0.295306
     22          8           0       -4.501400    3.971002   -0.964488
     23          8           0       -0.088952    3.035434   -0.457152
     24          6           0       -1.900302    4.844562   -1.076126
     25          1           0       -1.372781    5.296392   -0.235674
     26          1           0       -1.233004    4.843329   -1.937881
     27          1           0       -2.808634    5.396502   -1.295482
     28          6           0       -4.367144   -4.670514    0.791912
     29          1           0       -3.856475   -5.302109    0.065023
     30          1           0       -4.041037   -4.962079    1.790743
     31          1           0       -5.443482   -4.774111    0.698822
     32          6           0        0.875172    0.445914    0.280824
     33          6           0        1.571663    1.336267    1.065931
     34         16           0        1.970052   -0.684321   -0.490243
     35          6           0        2.966085    1.130875    1.036849
     36          1           0        1.088451    2.116321    1.631800
     37          6           0        3.376605    0.075387    0.224105
     38          8           0        3.904993    1.870898    1.685364
     39          6           0        4.719980   -0.345699   -0.062815
     40          6           0        3.455635    2.875893    2.589538
     41          6           0        5.124185   -1.422532   -0.844395
     42         16           0        6.139714    0.483508    0.564480
     43          1           0        4.354856    3.317874    3.014939
     44          1           0        2.881661    3.647683    2.067037
     45          1           0        2.848486    2.440789    3.390077
     46          6           0        6.534362   -1.578839   -0.937111
     47          8           0        4.183878   -2.210035   -1.429459
     48          6           0        7.202491   -0.620259   -0.226807
     49          1           0        7.029497   -2.358643   -1.496999
     50          6           0        4.624325   -3.284941   -2.253663
     51          1           0        8.270045   -0.504339   -0.119224
     52          1           0        5.212931   -4.007012   -1.678680
     53          1           0        3.721037   -3.767295   -2.622594
     54          1           0        5.213153   -2.916352   -3.099725
 ---------------------------------------------------------------------

 The electronic state is 1-A.
 Alpha  occ. eigenvalues --  -88.88317 -88.88270 -19.17073 -19.16751 -19.12399
 Alpha  occ. eigenvalues --  -19.12351 -19.11775 -19.11721 -14.38561 -14.38110
 Alpha  occ. eigenvalues --  -10.31003 -10.30827 -10.30588 -10.30364 -10.24666
 Alpha  occ. eigenvalues --  -10.24438 -10.23837 -10.23748 -10.23534 -10.22902
 Alpha  occ. eigenvalues --  -10.22660 -10.22539 -10.22240 -10.22233 -10.22128
 Alpha  occ. eigenvalues --  -10.22011 -10.21888 -10.21633 -10.21359 -10.21083
 Alpha  occ. eigenvalues --  -10.21027 -10.20999 -10.20873 -10.20673 -10.18863
 Alpha  occ. eigenvalues --  -10.18803  -7.96877  -7.96822  -5.93196  -5.93132
 Alpha  occ. eigenvalues --   -5.92807  -5.92743  -5.92423  -5.92391  -1.08648
 Alpha  occ. eigenvalues --   -1.08618  -1.08311  -1.08235  -1.06835  -1.06341
 Alpha  occ. eigenvalues --   -0.96210  -0.95674  -0.92416  -0.90284  -0.88725
 Alpha  occ. eigenvalues --   -0.86616  -0.84227  -0.80407  -0.78410  -0.77629
 Alpha  occ. eigenvalues --   -0.76369  -0.75253  -0.75136  -0.73119  -0.72418
 Alpha  occ. eigenvalues --   -0.71785  -0.70293  -0.68807  -0.67113  -0.65849
 Alpha  occ. eigenvalues --   -0.65568  -0.64657  -0.61048  -0.59819  -0.58570
 Alpha  occ. eigenvalues --   -0.57365  -0.56721  -0.56294  -0.55307  -0.54731
 Alpha  occ. eigenvalues --   -0.53491  -0.51660  -0.50220  -0.49877  -0.49742
 Alpha  occ. eigenvalues --   -0.49422  -0.48715  -0.48639  -0.48500  -0.48318
 Alpha  occ. eigenvalues --   -0.48085  -0.47044  -0.46559  -0.46270  -0.45849
 Alpha  occ. eigenvalues --   -0.45520  -0.44962  -0.44516  -0.44258  -0.43701
 Alpha  occ. eigenvalues --   -0.42704  -0.42548  -0.42325  -0.42022  -0.41850
 Alpha  occ. eigenvalues --   -0.41533  -0.41249  -0.41146  -0.40503  -0.39687
 Alpha  occ. eigenvalues --   -0.39635  -0.39144  -0.38878  -0.37649  -0.37393
 Alpha  occ. eigenvalues --   -0.36347  -0.35666  -0.34263  -0.33915  -0.33702
 Alpha  occ. eigenvalues --   -0.33425  -0.32126  -0.31004  -0.30327  -0.29771
 Alpha  occ. eigenvalues --   -0.29272  -0.28887  -0.28650  -0.28088  -0.27276
 Alpha  occ. eigenvalues --   -0.26125  -0.24631  -0.24509  -0.19316
 Alpha virt. eigenvalues --   -0.13059  -0.07162  -0.06385  -0.04649  -0.03934
 Alpha virt. eigenvalues --   -0.00864  -0.00398  -0.00292   0.00063   0.00502
 Alpha virt. eigenvalues --    0.00736   0.01084   0.01412   0.01467   0.01793

 Mulliken charges:
               1
     1  C    0.329465
     2  C   -0.085173
     3  C    0.154388
     4  C    0.196332
     5  C    0.245588
     6  C   -0.529718
     7  C    0.198940
     8  C    0.254963
     9  C    0.593624
    10  C   -0.385124
    11  C    0.192803
    12  C    0.166731
    13  C   -0.475957
    14  C   -0.572091
    15  H    0.159158
    16  H    0.161050
    17  H    0.185573
    18  N   -0.156715
    19  N   -0.143476
    20  O   -0.276585
    21  O   -0.269512
    22  O   -0.276277
    23  O   -0.186952
    24  C   -0.212743
    25  H    0.171005
    26  H    0.176594
    27  H    0.182723
    28  C   -0.198152
    29  H    0.173830
    30  H    0.174848
    31  H    0.182479
    32  C    0.037826
    33  C   -0.474037
    34  S   -0.515194
    35  C   -0.107740
    36  H    0.137193
    37  C    0.715618
    38  O   -0.133375
    39  C    0.762739
    40  C   -0.230500
    41  C   -0.068762
    42  S   -0.259572
    43  H    0.165272
    44  H    0.153713
    45  H    0.146547
    46  C   -0.561356
    47  O   -0.132781
    48  C   -0.275979
    49  H    0.131442
    50  C   -0.241148
    51  H    0.160475
    52  H    0.144624
    53  H    0.167085
    54  H    0.146294
 Sum of Mulliken charges =  -0.00000

 Dipole moment (field-independent basis, Debye):
    X=              3.9255    Y=             -0.6207    Z=              0.2228  Tot=              3.9805
 Quadrupole moment (field-independent basis, Debye-Ang):
   XX=           -218.8710   YY=           -217.3313   ZZ=           -212.6765
   XY=             -4.0750   XZ=             -5.6857   YZ=             16.9705

 Normal termination of Gaussian 16 at Sun Nov 29 12:43:11 2020.
