 Gaussian 16, Revision C.01,
 Gaussian 16:  ES64L-G16RevC.01  3-Jul-2019

 -------------------------------------
 # opt=modredundant b3lyp/6-311+g(d,p)
 -------------------------------------

 -----------
 NDI_155.pdb
 -----------
 Symbolic Z-matrix:
 Charge =  0 Multiplicity = 1

 SCF Done:  E(RB3LYP) =  -2359.30885998     A.U. after   18 cycles
 SCF Done:  E(RB3LYP) =  -2359.32308685     A.U. after   17 cycles
 SCF Done:  E(RB3LYP) =  -2359.33028421     A.U. after   17 cycles
 SCF Done:  E(RB3LYP) =  -2359.33386877     A.U. after   16 cycles
 SCF Done:  E(RB3LYP) =  -2359.33432739     A.U. after   14 cycles
 SCF Done:  E(RB3LYP) =  -2359.33482914     A.U. after   17 cycles
 SCF Done:  E(RB3LYP) =  -2359.33523573     A.U. after   16 cycles
 SCF Done:  E(RB3LYP) =  -2359.33539795     A.U. after   13 cycles
 SCF Done:  E(RB3LYP) =  -2359.33554263     A.U. after   16 cycles
 SCF Done:  E(RB3LYP) =  -2359.33558428     A.U. after   14 cycles
 SCF Done:  E(RB3LYP) =  -2359.33567871     A.U. after   13 cycles
 SCF Done:  E(RB3LYP) =  -2359.33577465     A.U. after   13 cycles
 SCF Done:  E(RB3LYP) =  -2359.33578683     A.U. after   11 cycles
 SCF Done:  E(RB3LYP) =  -2359.33578593     A.U. after   12 cycles
 SCF Done:  E(RB3LYP) =  -2359.33578764     A.U. after   13 cycles
 SCF Done:  E(RB3LYP) =  -2359.33578188     A.U. after   13 cycles
 SCF Done:  E(RB3LYP) =  -2359.33579277     A.U. after   12 cycles
 SCF Done:  E(RB3LYP) =  -2359.33579287     A.U. after    9 cycles
 SCF Done:  E(RB3LYP) =  -2359.33579292     A.U. after    9 cycles
 SCF Done:  E(RB3LYP) =  -2359.33579292     A.U. after    9 cycles
 Optimization completed.
    -- Stationary point found.

                         Standard orientation:
 ---------------------------------------------------------------------
 Center     Atomic      Atomic             Coordinates (Angstroms)
 Number     Number       Type             X           Y           Z
 ---------------------------------------------------------------------
      1          6           0       -3.406588   -2.729848   -0.307586
      2          6           0       -2.711032   -1.440045   -0.058187
      3          6           0       -3.418584   -0.218416   -0.134181
      4          6           0       -4.792142   -0.203077   -0.449068
      5          6           0       -5.517162   -1.474200   -0.714630
      6          6           0       -1.369421   -1.441537    0.219725
      7          6           0       -2.719304    0.990333    0.133145
      8          6           0       -1.324577    0.975765    0.435997
      9          6           0       -0.616845   -0.249733    0.444436
     10          6           0       -0.711623    2.247842    0.897499
     11          6           0       -2.816657    3.493382    0.408502
     12          6           0       -3.459644    2.198380    0.088907
     13          6           0       -4.809207    2.194524   -0.233289
     14          6           0       -5.480715    0.998563   -0.505917
     15          1           0       -6.534746    0.990506   -0.751721
     16          1           0       -5.330090    3.143301   -0.260068
     17          1           0       -0.861060   -2.395292    0.209231
     18          7           0       -1.488323    3.419500    0.829408
     19          7           0       -4.768666   -2.660871   -0.618837
     20          8           0       -2.840029   -3.806632   -0.253523
     21          8           0       -6.699877   -1.497711   -0.998234
     22          8           0       -3.409328    4.556204    0.335113
     23          8           0        0.422167    2.331979    1.334063
     24          6           0       -0.820737    4.657103    1.257206
     25          1           0       -0.499052    4.562969    2.294389
     26          1           0        0.060705    4.834100    0.640445
     27          1           0       -1.530787    5.470717    1.148156
     28          6           0       -5.445737   -3.941364   -0.868960
     29          1           0       -4.954782   -4.462085   -1.691203
     30          1           0       -5.387319   -4.569111    0.020661
     31          1           0       -6.480974   -3.728776   -1.115966
     32          6           0        0.827316   -0.463765    0.557150
     33          6           0        1.411495   -1.625626    1.044876
     34         16           0        2.034670    0.545239   -0.196755
     35          6           0        2.798718   -1.690615    0.832682
     36          1           0        0.851181   -2.389716    1.563128
     37          6           0        3.314850   -0.600337    0.129753
     38          8           0        3.640769   -2.676850    1.243262
     39          6           0        4.677059   -0.381996   -0.267637
     40          6           0        3.069227   -3.836692    1.840646
     41          6           0        5.194753    0.700562   -0.972873
     42         16           0        5.974787   -1.516471    0.091529
     43          1           0        3.901739   -4.505330    2.051834
     44          1           0        2.558190   -3.587128    2.776291
     45          1           0        2.369719   -4.328080    1.156611
     46          6           0        6.593428    0.622801   -1.215046
     47          8           0        4.363928    1.701093   -1.359627
     48          6           0        7.138711   -0.519508   -0.697567
     49          1           0        7.166636    1.369776   -1.744272
     50          6           0        4.924960    2.815558   -2.047376
     51          1           0        8.171000   -0.832097   -0.736501
     52          1           0        5.377966    2.506126   -2.994681
     53          1           0        4.095082    3.491059   -2.246036
     54          1           0        5.669928    3.325382   -1.428365
 ---------------------------------------------------------------------

 The electronic state is 1-A.
 Alpha  occ. eigenvalues --  -88.88556 -88.88255 -19.17339 -19.17063 -19.12291
 Alpha  occ. eigenvalues --  -19.12286 -19.11510 -19.11399 -14.38472 -14.37833
 Alpha  occ. eigenvalues --  -10.30881 -10.30759 -10.30212 -10.30089 -10.25034
 Alpha  occ. eigenvalues --  -10.24670 -10.24040 -10.23842 -10.23682 -10.22631
 Alpha  occ. eigenvalues --  -10.22462 -10.22250 -10.22219 -10.22212 -10.22017
 Alpha  occ. eigenvalues --  -10.21998 -10.21908 -10.21719 -10.21315 -10.21213
 Alpha  occ. eigenvalues --  -10.20935 -10.20813 -10.20756 -10.20454 -10.19284
 Alpha  occ. eigenvalues --  -10.19137  -7.97108  -7.96791  -5.93417  -5.93113
 Alpha  occ. eigenvalues --   -5.93028  -5.92710  -5.92676  -5.92338  -1.08925
 Alpha  occ. eigenvalues --   -1.08620  -1.08541  -1.07954  -1.06730  -1.06056
 Alpha  occ. eigenvalues --   -0.96100  -0.95433  -0.92211  -0.90467  -0.88912
 Alpha  occ. eigenvalues --   -0.86511  -0.84003  -0.80492  -0.78199  -0.77693
 Alpha  occ. eigenvalues --   -0.76601  -0.75528  -0.74968  -0.73395  -0.72338
 Alpha  occ. eigenvalues --   -0.71429  -0.70676  -0.68896  -0.66926  -0.65701
 Alpha  occ. eigenvalues --   -0.65369  -0.64702  -0.60994  -0.60038  -0.58560
 Alpha  occ. eigenvalues --   -0.57337  -0.56742  -0.56486  -0.55172  -0.54797
 Alpha  occ. eigenvalues --   -0.53674  -0.51475  -0.50156  -0.49916  -0.49507
 Alpha  occ. eigenvalues --   -0.49285  -0.48959  -0.48660  -0.48623  -0.48342
 Alpha  occ. eigenvalues --   -0.48186  -0.46946  -0.46540  -0.46188  -0.45895
 Alpha  occ. eigenvalues --   -0.45643  -0.44837  -0.44463  -0.44174  -0.43665
 Alpha  occ. eigenvalues --   -0.42948  -0.42394  -0.42216  -0.41943  -0.41814
 Alpha  occ. eigenvalues --   -0.41685  -0.41160  -0.41029  -0.40445  -0.39808
 Alpha  occ. eigenvalues --   -0.39386  -0.39159  -0.38832  -0.37743  -0.37308
 Alpha  occ. eigenvalues --   -0.36594  -0.36068  -0.34424  -0.34200  -0.33599
 Alpha  occ. eigenvalues --   -0.33495  -0.31845  -0.30798  -0.30255  -0.29671
 Alpha  occ. eigenvalues --   -0.29241  -0.28677  -0.28538  -0.27835  -0.27369
 Alpha  occ. eigenvalues --   -0.25955  -0.24990  -0.24324  -0.19503
 Alpha virt. eigenvalues --   -0.12890  -0.07474  -0.06261  -0.04441  -0.03735
 Alpha virt. eigenvalues --   -0.00836  -0.00534  -0.00346  -0.00038   0.00345
 Alpha virt. eigenvalues --    0.00844   0.01095   0.01468   0.01737   0.01966

 Mulliken charges:
               1
     1  C    0.294987
     2  C    0.014155
     3  C    0.200904
     4  C    0.245445
     5  C    0.205892
     6  C    0.048478
     7  C    0.170716
     8  C    0.152946
     9  C    0.247321
    10  C   -0.397230
    11  C    0.297566
    12  C    0.100051
    13  C   -0.476014
    14  C   -0.609934
    15  H    0.158402
    16  H    0.160778
    17  H    0.160504
    18  N   -0.098954
    19  N   -0.143070
    20  O   -0.284344
    21  O   -0.268948
    22  O   -0.280462
    23  O   -0.221557
    24  C   -0.181026
    25  H    0.177780
    26  H    0.174438
    27  H    0.181975
    28  C   -0.193911
    29  H    0.173894
    30  H    0.173132
    31  H    0.182088
    32  C   -0.023706
    33  C   -0.706821
    34  S   -0.619484
    35  C   -0.142114
    36  H    0.134538
    37  C    0.770159
    38  O   -0.137567
    39  C    0.874311
    40  C   -0.226483
    41  C   -0.017461
    42  S   -0.251871
    43  H    0.166950
    44  H    0.145945
    45  H    0.153953
    46  C   -0.596333
    47  O   -0.127197
    48  C   -0.275047
    49  H    0.132341
    50  C   -0.242197
    51  H    0.161812
    52  H    0.145399
    53  H    0.167265
    54  H    0.147609
 Sum of Mulliken charges =  -0.00000

 Dipole moment (field-independent basis, Debye):
    X=              4.7281    Y=             -0.7599    Z=             -0.5552  Tot=              4.8208
 Quadrupole moment (field-independent basis, Debye-Ang):
   XX=           -213.0083   YY=           -217.2865   ZZ=           -217.3306
   XY=             10.3524   XZ=            -11.4642   YZ=            -12.3387

 Normal termination of Gaussian 16 at Sun Nov 29 18:44:45 2020.
