 Gaussian 16, Revision C.01,
 Gaussian 16:  ES64L-G16RevC.01  3-Jul-2019

 -------------------------------------
 # opt=modredundant b3lyp/6-311+g(d,p)
 -------------------------------------

 ---------
 NDI_0.pdb
 ---------
 Symbolic Z-matrix:
 Charge =  0 Multiplicity = 1

 SCF Done:  E(RB3LYP) =  -2359.32049243     A.U. after   16 cycles
 SCF Done:  E(RB3LYP) =  -2359.31440725     A.U. after   17 cycles
 SCF Done:  E(RB3LYP) =  -2359.33188784     A.U. after   15 cycles
 SCF Done:  E(RB3LYP) =  -2359.33432722     A.U. after   17 cycles
 SCF Done:  E(RB3LYP) =  -2359.33451434     A.U. after   13 cycles
 SCF Done:  E(RB3LYP) =  -2359.33469518     A.U. after   13 cycles
 SCF Done:  E(RB3LYP) =  -2359.33474051     A.U. after   13 cycles
 SCF Done:  E(RB3LYP) =  -2359.33475273     A.U. after   12 cycles
 SCF Done:  E(RB3LYP) =  -2359.33475815     A.U. after   12 cycles
 SCF Done:  E(RB3LYP) =  -2359.33476044     A.U. after   11 cycles
 SCF Done:  E(RB3LYP) =  -2359.33476158     A.U. after   10 cycles
 SCF Done:  E(RB3LYP) =  -2359.33476219     A.U. after   11 cycles
 SCF Done:  E(RB3LYP) =  -2359.33476229     A.U. after    9 cycles
 SCF Done:  E(RB3LYP) =  -2359.33476233     A.U. after    9 cycles
 Optimization completed.
    -- Stationary point found.

                         Standard orientation:
 ---------------------------------------------------------------------
 Center     Atomic      Atomic             Coordinates (Angstroms)
 Number     Number       Type             X           Y           Z
 ---------------------------------------------------------------------
      1          6           0       -2.328058   -3.035899    0.105700
      2          6           0       -2.136697   -1.561199    0.091120
      3          6           0       -3.241174   -0.691798   -0.051384
      4          6           0       -4.540684   -1.212334   -0.199671
      5          6           0       -4.768295   -2.682056   -0.214176
      6          6           0       -0.874970   -1.053289    0.198765
      7          6           0       -3.003151    0.709831   -0.010305
      8          6           0       -1.674551    1.239118    0.120088
      9          6           0       -0.556811    0.344644    0.172762
     10          6           0       -1.574199    2.700017    0.358038
     11          6           0       -4.017186    3.017031   -0.031215
     12          6           0       -4.142635    1.549146   -0.115269
     13          6           0       -5.416710    1.020199   -0.280302
     14          6           0       -5.625917   -0.358239   -0.324535
     15          1           0       -6.617259   -0.775566   -0.443386
     16          1           0       -6.244623    1.712728   -0.364022
     17          1           0       -0.085653   -1.787424    0.284216
     18          7           0       -2.734974    3.486785    0.243519
     19          7           0       -3.637216   -3.500540   -0.049628
     20          8           0       -1.405595   -3.820587    0.233996
     21          8           0       -5.876734   -3.163263   -0.355060
     22          8           0       -4.965325    3.772795   -0.164477
     23          8           0       -0.540139    3.285881    0.643862
     24          6           0       -2.554498    4.931929    0.442637
     25          1           0       -2.155459    5.121099    1.439029
     26          1           0       -1.848067    5.322649   -0.290154
     27          1           0       -3.524644    5.403420    0.322322
     28          6           0       -3.817400   -4.959083   -0.047584
     29          1           0       -3.223175   -5.403828   -0.846005
     30          1           0       -3.479774   -5.370720    0.903979
     31          1           0       -4.872436   -5.165079   -0.197312
     32          6           0        0.874747    0.624951    0.068507
     33          6           0        1.609100    1.790134   -0.107997
     34         16           0        2.000261   -0.747509    0.160539
     35          6           0        2.994932    1.591271   -0.187230
     36          1           0        1.147122    2.756541   -0.161974
     37          6           0        3.402052    0.262220   -0.053708
     38          8           0        3.935006    2.552381   -0.377722
     39          6           0        4.739241   -0.252551   -0.075218
     40          6           0        3.510076    3.915182   -0.370515
     41          6           0        5.142333   -1.578656    0.067588
     42         16           0        6.157052    0.768247   -0.294571
     43          1           0        4.416735    4.508660   -0.472505
     44          1           0        2.841273    4.121673   -1.211579
     45          1           0        3.007394    4.163998    0.568503
     46          6           0        6.549199   -1.767936    0.003563
     47          8           0        4.206095   -2.540108    0.252214
     48          6           0        7.214361   -0.588135   -0.188520
     49          1           0        7.044305   -2.723520    0.094402
     50          6           0        4.636907   -3.895202    0.361874
     51          1           0        8.280305   -0.441571   -0.273967
     52          1           0        5.286759   -4.030993    1.231971
     53          1           0        3.731203   -4.484805    0.488989
     54          1           0        5.157778   -4.215344   -0.545808
 ---------------------------------------------------------------------

 The electronic state is 1-A.
 Alpha  occ. eigenvalues --  -88.88973 -88.88631 -19.17734 -19.17153 -19.12133
 Alpha  occ. eigenvalues --  -19.12130 -19.11470 -19.11238 -14.38329 -14.37778
 Alpha  occ. eigenvalues --  -10.30715 -10.30595 -10.30398 -10.29780 -10.25550
 Alpha  occ. eigenvalues --  -10.24879 -10.24229 -10.24182 -10.23615 -10.23077
 Alpha  occ. eigenvalues --  -10.22722 -10.22574 -10.22361 -10.22328 -10.21974
 Alpha  occ. eigenvalues --  -10.21768 -10.21755 -10.21681 -10.21402 -10.21160
 Alpha  occ. eigenvalues --  -10.20836 -10.20480 -10.20462 -10.20404 -10.19525
 Alpha  occ. eigenvalues --  -10.18622  -7.97522  -7.97211  -5.93832  -5.93532
 Alpha  occ. eigenvalues --   -5.93442  -5.93134  -5.93091  -5.92750  -1.09331
 Alpha  occ. eigenvalues --   -1.08713  -1.08404  -1.07960  -1.06580  -1.05932
 Alpha  occ. eigenvalues --   -0.95974  -0.95334  -0.91998  -0.90739  -0.89124
 Alpha  occ. eigenvalues --   -0.86360  -0.83798  -0.80489  -0.78223  -0.77864
 Alpha  occ. eigenvalues --   -0.76736  -0.75631  -0.74885  -0.73562  -0.72208
 Alpha  occ. eigenvalues --   -0.71773  -0.70652  -0.68851  -0.66955  -0.65562
 Alpha  occ. eigenvalues --   -0.65456  -0.64393  -0.61368  -0.60139  -0.58565
 Alpha  occ. eigenvalues --   -0.57284  -0.56860  -0.56655  -0.55400  -0.54915
 Alpha  occ. eigenvalues --   -0.53263  -0.51428  -0.50494  -0.49837  -0.49489
 Alpha  occ. eigenvalues --   -0.49259  -0.49221  -0.48635  -0.48564  -0.48425
 Alpha  occ. eigenvalues --   -0.48171  -0.47108  -0.46459  -0.46101  -0.46004
 Alpha  occ. eigenvalues --   -0.45712  -0.44729  -0.44236  -0.43975  -0.43153
 Alpha  occ. eigenvalues --   -0.42990  -0.42596  -0.42391  -0.42050  -0.41860
 Alpha  occ. eigenvalues --   -0.41571  -0.41090  -0.40966  -0.40294  -0.39867
 Alpha  occ. eigenvalues --   -0.39369  -0.39042  -0.38983  -0.37753  -0.37342
 Alpha  occ. eigenvalues --   -0.36648  -0.36342  -0.34746  -0.34434  -0.33604
 Alpha  occ. eigenvalues --   -0.33364  -0.31789  -0.30727  -0.30479  -0.29600
 Alpha  occ. eigenvalues --   -0.29160  -0.28533  -0.28512  -0.27640  -0.27292
 Alpha  occ. eigenvalues --   -0.26049  -0.25073  -0.24989  -0.19849
 Alpha virt. eigenvalues --   -0.12726  -0.08057  -0.06259  -0.04201  -0.03527
 Alpha virt. eigenvalues --   -0.00854  -0.00407  -0.00253  -0.00111   0.00390
 Alpha virt. eigenvalues --    0.00907   0.01342   0.01381   0.01866   0.01931

 Mulliken charges:
               1
     1  C    0.304497
     2  C    0.086479
     3  C    0.176804
     4  C    0.317268
     5  C    0.249290
     6  C    0.058948
     7  C    0.207837
     8  C    0.210625
     9  C    0.234548
    10  C   -0.651288
    11  C    0.212504
    12  C    0.187967
    13  C   -0.494638
    14  C   -0.666911
    15  H    0.157879
    16  H    0.161630
    17  H    0.166670
    18  N   -0.131999
    19  N   -0.139907
    20  O   -0.286651
    21  O   -0.270109
    22  O   -0.281905
    23  O   -0.271797
    24  C   -0.168499
    25  H    0.176843
    26  H    0.169374
    27  H    0.183183
    28  C   -0.193807
    29  H    0.173365
    30  H    0.172953
    31  H    0.181698
    32  C    0.055035
    33  C    0.109498
    34  S   -0.650592
    35  C   -0.908346
    36  H    0.177868
    37  C    0.439928
    38  O   -0.129098
    39  C    1.057845
    40  C   -0.247488
    41  C    0.045667
    42  S   -0.219752
    43  H    0.165970
    44  H    0.148166
    45  H    0.162335
    46  C   -0.520714
    47  O   -0.125263
    48  C   -0.316539
    49  H    0.134078
    50  C   -0.243544
    51  H    0.163954
    52  H    0.145775
    53  H    0.174687
    54  H    0.147677
 Sum of Mulliken charges =  -0.00000

 Dipole moment (field-independent basis, Debye):
    X=              5.9865    Y=             -0.8442    Z=             -0.1190  Tot=              6.0469
 Quadrupole moment (field-independent basis, Debye-Ang):
   XX=           -214.9753   YY=           -207.1363   ZZ=           -223.9816
   XY=             -5.0281   XZ=             -2.5757   YZ=             -2.4945

 Normal termination of Gaussian 16 at Sun Nov 29 13:32:56 2020.
