 Gaussian 16, Revision C.01,
 Gaussian 16:  ES64L-G16RevC.01  3-Jul-2019

 -------------------------------------
 # opt=modredundant b3lyp/6-311+g(d,p)
 -------------------------------------

 ----------
 NDI_45.pdb
 ----------
 Symbolic Z-matrix:
 Charge =  0 Multiplicity = 1

 SCF Done:  E(RB3LYP) =  -2359.33348823     A.U. after   17 cycles
 SCF Done:  E(RB3LYP) =  -2359.33517012     A.U. after   17 cycles
 SCF Done:  E(RB3LYP) =  -2359.33736390     A.U. after   16 cycles
 SCF Done:  E(RB3LYP) =  -2359.33773983     A.U. after   14 cycles
 SCF Done:  E(RB3LYP) =  -2359.33784849     A.U. after   16 cycles
 SCF Done:  E(RB3LYP) =  -2359.33792635     A.U. after   12 cycles
 SCF Done:  E(RB3LYP) =  -2359.33795058     A.U. after   12 cycles
 SCF Done:  E(RB3LYP) =  -2359.33796124     A.U. after   11 cycles
 SCF Done:  E(RB3LYP) =  -2359.33796245     A.U. after   11 cycles
 SCF Done:  E(RB3LYP) =  -2359.33796328     A.U. after   10 cycles
 SCF Done:  E(RB3LYP) =  -2359.33796347     A.U. after   10 cycles
 SCF Done:  E(RB3LYP) =  -2359.33796356     A.U. after    9 cycles
 Optimization completed.
    -- Stationary point found.

                         Standard orientation:
 ---------------------------------------------------------------------
 Center     Atomic      Atomic             Coordinates (Angstroms)
 Number     Number       Type             X           Y           Z
 ---------------------------------------------------------------------
      1          6           0       -2.615137   -2.962116    0.520496
      2          6           0       -2.281835   -1.529805    0.298855
      3          6           0       -3.307367   -0.577200    0.101399
      4          6           0       -4.660687   -0.973187    0.101376
      5          6           0       -5.029886   -2.398339    0.315926
      6          6           0       -0.968918   -1.137482    0.291191
      7          6           0       -2.946133    0.781503   -0.117799
      8          6           0       -1.575435    1.183587   -0.112986
      9          6           0       -0.564460    0.220449    0.122714
     10          6           0       -1.270466    2.600261   -0.451961
     11          6           0       -3.704168    3.127522   -0.641046
     12          6           0       -3.995410    1.705577   -0.352956
     13          6           0       -5.321340    1.297651   -0.341892
     14          6           0       -5.661234   -0.038874   -0.112280
     15          1           0       -6.693901   -0.362943   -0.108576
     16          1           0       -6.085379    2.042502   -0.525179
     17          1           0       -0.217505   -1.894821    0.472047
     18          7           0       -2.352050    3.465046   -0.708430
     19          7           0       -3.971936   -3.304235    0.499733
     20          8           0       -1.768333   -3.812816    0.721765
     21          8           0       -6.188040   -2.770618    0.330257
     22          8           0       -4.582122    3.953305   -0.824209
     23          8           0       -0.144255    3.057909   -0.533746
     24          6           0       -1.997367    4.851570   -1.043992
     25          1           0       -1.435771    5.300818   -0.224464
     26          1           0       -1.370802    4.865091   -1.935680
     27          1           0       -2.920066    5.396663   -1.215310
     28          6           0       -4.289666   -4.722745    0.717700
     29          1           0       -3.792546   -5.329546   -0.039101
     30          1           0       -3.931719   -5.035110    1.699211
     31          1           0       -5.366933   -4.837456    0.652524
     32          6           0        0.874819    0.460209    0.231487
     33          6           0        1.569875    1.434140    0.915950
     34         16           0        1.983431   -0.727938   -0.434515
     35          6           0        2.963541    1.237208    0.904816
     36          1           0        1.085513    2.263450    1.403302
     37          6           0        3.382250    0.109280    0.197662
     38          8           0        3.897776    2.043141    1.475468
     39          6           0        4.728192   -0.328750   -0.043031
     40          6           0        3.442502    3.129521    2.277662
     41          6           0        5.141198   -1.471810   -0.720281
     42         16           0        6.141255    0.562378    0.510866
     43          1           0        4.339387    3.618096    2.654119
     44          1           0        2.860740    3.840781    1.683115
     45          1           0        2.841040    2.770450    3.119059
     46          6           0        6.552278   -1.628650   -0.791827
     47          8           0        4.207780   -2.314103   -1.233287
     48          6           0        7.212099   -0.604627   -0.170369
     49          1           0        7.053932   -2.454141   -1.275136
     50          6           0        4.655864   -3.460108   -1.951581
     51          1           0        8.278654   -0.473421   -0.070352
     52          1           0        5.244559   -4.122305   -1.308785
     53          1           0        3.755817   -3.978394   -2.276911
     54          1           0        5.246805   -3.169684   -2.826026
 ---------------------------------------------------------------------

 The electronic state is 1-A.
 Alpha  occ. eigenvalues --  -88.88458 -88.88435 -19.17263 -19.16893 -19.12307
 Alpha  occ. eigenvalues --  -19.12269 -19.11617 -19.11577 -14.38478 -14.37991
 Alpha  occ. eigenvalues --  -10.30907 -10.30742 -10.30483 -10.30197 -10.24901
 Alpha  occ. eigenvalues --  -10.24602 -10.23960 -10.23757 -10.23604 -10.22790
 Alpha  occ. eigenvalues --  -10.22509 -10.22406 -10.22381 -10.22105 -10.22095
 Alpha  occ. eigenvalues --  -10.22020 -10.21828 -10.21826 -10.21274 -10.21086
 Alpha  occ. eigenvalues --  -10.20937 -10.20910 -10.20846 -10.20595 -10.19042
 Alpha  occ. eigenvalues --  -10.18887  -7.97010  -7.96999  -5.93320  -5.93317
 Alpha  occ. eigenvalues --   -5.92930  -5.92928  -5.92578  -5.92545  -1.08817
 Alpha  occ. eigenvalues --   -1.08561  -1.08459  -1.08109  -1.06745  -1.06194
 Alpha  occ. eigenvalues --   -0.96124  -0.95545  -0.92284  -0.90419  -0.88848
 Alpha  occ. eigenvalues --   -0.86542  -0.84094  -0.80418  -0.78305  -0.77728
 Alpha  occ. eigenvalues --   -0.76477  -0.75400  -0.75047  -0.73244  -0.72348
 Alpha  occ. eigenvalues --   -0.71770  -0.70400  -0.68832  -0.67032  -0.65741
 Alpha  occ. eigenvalues --   -0.65519  -0.64575  -0.61124  -0.59912  -0.58546
 Alpha  occ. eigenvalues --   -0.57302  -0.56748  -0.56451  -0.55228  -0.54873
 Alpha  occ. eigenvalues --   -0.53426  -0.51576  -0.50213  -0.49885  -0.49650
 Alpha  occ. eigenvalues --   -0.49352  -0.48863  -0.48619  -0.48452  -0.48397
 Alpha  occ. eigenvalues --   -0.48156  -0.46971  -0.46483  -0.46240  -0.45853
 Alpha  occ. eigenvalues --   -0.45645  -0.44890  -0.44412  -0.44141  -0.43576
 Alpha  occ. eigenvalues --   -0.42775  -0.42581  -0.42325  -0.42004  -0.41771
 Alpha  occ. eigenvalues --   -0.41686  -0.41157  -0.41068  -0.40419  -0.39748
 Alpha  occ. eigenvalues --   -0.39509  -0.39108  -0.39010  -0.37713  -0.37383
 Alpha  occ. eigenvalues --   -0.36482  -0.35775  -0.34395  -0.34038  -0.33743
 Alpha  occ. eigenvalues --   -0.33555  -0.32003  -0.30926  -0.30337  -0.29721
 Alpha  occ. eigenvalues --   -0.29224  -0.28776  -0.28589  -0.27979  -0.27247
 Alpha  occ. eigenvalues --   -0.26043  -0.24762  -0.24605  -0.19455
 Alpha virt. eigenvalues --   -0.12965  -0.07311  -0.06369  -0.04513  -0.03802
 Alpha virt. eigenvalues --   -0.00830  -0.00455  -0.00304   0.00032   0.00432
 Alpha virt. eigenvalues --    0.00793   0.01140   0.01490   0.01553   0.01823

 Mulliken charges:
               1
     1  C    0.290027
     2  C   -0.073750
     3  C    0.163394
     4  C    0.198654
     5  C    0.233974
     6  C   -0.404325
     7  C    0.208049
     8  C    0.316016
     9  C    0.519147
    10  C   -0.393968
    11  C    0.204622
    12  C    0.165828
    13  C   -0.481793
    14  C   -0.582877
    15  H    0.158592
    16  H    0.160911
    17  H    0.183235
    18  N   -0.147427
    19  N   -0.142169
    20  O   -0.278898
    21  O   -0.269424
    22  O   -0.277092
    23  O   -0.205889
    24  C   -0.204824
    25  H    0.169927
    26  H    0.176122
    27  H    0.182573
    28  C   -0.198089
    29  H    0.173452
    30  H    0.174547
    31  H    0.182360
    32  C    0.034990
    33  C   -0.525782
    34  S   -0.560431
    35  C   -0.155701
    36  H    0.141481
    37  C    0.740858
    38  O   -0.130358
    39  C    0.793614
    40  C   -0.232393
    41  C   -0.053134
    42  S   -0.255252
    43  H    0.165401
    44  H    0.155843
    45  H    0.147339
    46  C   -0.576342
    47  O   -0.130928
    48  C   -0.272383
    49  H    0.132178
    50  C   -0.241434
    51  H    0.161301
    52  H    0.145321
    53  H    0.168449
    54  H    0.146460
 Sum of Mulliken charges =  -0.00000

 Dipole moment (field-independent basis, Debye):
    X=              4.5076    Y=             -0.6913    Z=              0.2587  Tot=              4.5676
 Quadrupole moment (field-independent basis, Debye-Ang):
   XX=           -217.9072   YY=           -215.1565   ZZ=           -215.1197
   XY=             -4.3499   XZ=             -4.4513   YZ=             15.9715

 Normal termination of Gaussian 16 at Sun Nov 29 13:29:03 2020.
