 Gaussian 16, Revision C.01,
 Gaussian 16:  ES64L-G16RevC.01  3-Jul-2019

 -------------------------------------
 # opt=modredundant b3lyp/6-311+g(d,p)
 -------------------------------------

 ----------
 NDI_10.pdb
 ----------
 Symbolic Z-matrix:
 Charge =  0 Multiplicity = 1

 SCF Done:  E(RB3LYP) =  -2359.31941688     A.U. after   17 cycles
 SCF Done:  E(RB3LYP) =  -2359.31611078     A.U. after   17 cycles
 SCF Done:  E(RB3LYP) =  -2359.33237234     A.U. after   14 cycles
 SCF Done:  E(RB3LYP) =  -2359.33380605     A.U. after   16 cycles
 SCF Done:  E(RB3LYP) =  -2359.33447590     A.U. after   16 cycles
 SCF Done:  E(RB3LYP) =  -2359.33457013     A.U. after   13 cycles
 SCF Done:  E(RB3LYP) =  -2359.33467531     A.U. after   13 cycles
 SCF Done:  E(RB3LYP) =  -2359.33477308     A.U. after   14 cycles
 SCF Done:  E(RB3LYP) =  -2359.33478937     A.U. after   16 cycles
 SCF Done:  E(RB3LYP) =  -2359.33492092     A.U. after   13 cycles
 SCF Done:  E(RB3LYP) =  -2359.33535346     A.U. after   16 cycles
 SCF Done:  E(RB3LYP) =  -2359.33543318     A.U. after   16 cycles
 SCF Done:  E(RB3LYP) =  -2359.33555050     A.U. after   12 cycles
 SCF Done:  E(RB3LYP) =  -2359.33560245     A.U. after   12 cycles
 SCF Done:  E(RB3LYP) =  -2359.33559907     A.U. after   12 cycles
 SCF Done:  E(RB3LYP) =  -2359.33562882     A.U. after   12 cycles
 SCF Done:  E(RB3LYP) =  -2359.33563156     A.U. after   13 cycles
 SCF Done:  E(RB3LYP) =  -2359.33563214     A.U. after   10 cycles
 SCF Done:  E(RB3LYP) =  -2359.33563236     A.U. after   11 cycles
 Optimization completed.
    -- Stationary point found.

                         Standard orientation:
 ---------------------------------------------------------------------
 Center     Atomic      Atomic             Coordinates (Angstroms)
 Number     Number       Type             X           Y           Z
 ---------------------------------------------------------------------
      1          6           0       -2.393969   -3.031060    0.140729
      2          6           0       -2.170892   -1.562836    0.062552
      3          6           0       -3.262656   -0.665645    0.084839
      4          6           0       -4.580632   -1.151835    0.181258
      5          6           0       -4.842322   -2.613774    0.261526
      6          6           0       -0.894110   -1.086597   -0.021983
      7          6           0       -2.994213    0.727117   -0.023745
      8          6           0       -1.650382    1.222099   -0.109132
      9          6           0       -0.555285    0.304527   -0.075981
     10          6           0       -1.496015    2.666839   -0.415588
     11          6           0       -3.953422    3.049655   -0.214999
     12          6           0       -4.118124    1.592797   -0.041459
     13          6           0       -5.410975    1.098306    0.074960
     14          6           0       -5.651859   -0.271457    0.187954
     15          1           0       -6.657671   -0.662888    0.266911
     16          1           0       -6.227829    1.808701    0.062429
     17          1           0       -0.110516   -1.831881    0.000629
     18          7           0       -2.646640    3.477179   -0.440676
     19          7           0       -3.722002   -3.461564    0.216443
     20          8           0       -1.481963   -3.837826    0.156828
     21          8           0       -5.968223   -3.064831    0.356607
     22          8           0       -4.890859    3.829668   -0.190656
     23          8           0       -0.428599    3.214665   -0.645059
     24          6           0       -2.421695    4.903337   -0.716208
     25          1           0       -1.765990    5.330527    0.043026
     26          1           0       -1.942089    5.020010   -1.687864
     27          1           0       -3.388075    5.397171   -0.703304
     28          6           0       -3.934331   -4.913742    0.293934
     29          1           0       -3.488993   -5.395312   -0.576623
     30          1           0       -3.455284   -5.310518    1.189641
     31          1           0       -5.004215   -5.093533    0.324787
     32          6           0        0.874094    0.573603    0.058907
     33          6           0        1.593745    1.717725    0.367239
     34         16           0        2.005882   -0.759567   -0.234388
     35          6           0        2.982750    1.526007    0.406821
     36          1           0        1.125141    2.664084    0.557443
     37          6           0        3.401036    0.230863    0.090815
     38          8           0        3.918049    2.470309    0.684873
     39          6           0        4.744269   -0.264264    0.020013
     40          6           0        3.465987    3.756931    1.104789
     41          6           0        5.157906   -1.558865   -0.286071
     42         16           0        6.156020    0.741744    0.328340
     43          1           0        4.365367    4.338709    1.297883
     44          1           0        2.875883    4.241384    0.321254
     45          1           0        2.872618    3.682122    2.021370
     46          6           0        6.567671   -1.736908   -0.271993
     47          8           0        4.227239   -2.506319   -0.555397
     48          6           0        7.224940   -0.579427    0.043156
     49          1           0        7.070327   -2.669278   -0.483058
     50          6           0        4.673281   -3.816251   -0.899713
     51          1           0        8.290848   -0.430484    0.124623
     52          1           0        5.238687   -4.266810   -0.078062
     53          1           0        3.772021   -4.398309   -1.081587
     54          1           0        5.285912   -3.796028   -1.806390
 ---------------------------------------------------------------------

 The electronic state is 1-A.
 Alpha  occ. eigenvalues --  -88.88918 -88.88642 -19.17695 -19.17182 -19.12127
 Alpha  occ. eigenvalues --  -19.12123 -19.11373 -19.11263 -14.38322 -14.37764
 Alpha  occ. eigenvalues --  -10.30714 -10.30587 -10.30334 -10.29811 -10.25477
 Alpha  occ. eigenvalues --  -10.24909 -10.24217 -10.24037 -10.23685 -10.23031
 Alpha  occ. eigenvalues --  -10.22575 -10.22569 -10.22300 -10.22281 -10.22011
 Alpha  occ. eigenvalues --  -10.21794 -10.21774 -10.21613 -10.21427 -10.21153
 Alpha  occ. eigenvalues --  -10.20827 -10.20512 -10.20448 -10.20436 -10.19474
 Alpha  occ. eigenvalues --  -10.18797  -7.97468  -7.97219  -5.93778  -5.93538
 Alpha  occ. eigenvalues --   -5.93388  -5.93143  -5.93037  -5.92761  -1.09283
 Alpha  occ. eigenvalues --   -1.08749  -1.08398  -1.07909  -1.06575  -1.05914
 Alpha  occ. eigenvalues --   -0.95965  -0.95311  -0.92013  -0.90718  -0.89112
 Alpha  occ. eigenvalues --   -0.86370  -0.83808  -0.80478  -0.78209  -0.77857
 Alpha  occ. eigenvalues --   -0.76717  -0.75653  -0.74875  -0.73542  -0.72204
 Alpha  occ. eigenvalues --   -0.71770  -0.70632  -0.68855  -0.66923  -0.65545
 Alpha  occ. eigenvalues --   -0.65451  -0.64394  -0.61337  -0.60127  -0.58538
 Alpha  occ. eigenvalues --   -0.57268  -0.56838  -0.56660  -0.55350  -0.54932
 Alpha  occ. eigenvalues --   -0.53290  -0.51425  -0.50398  -0.49821  -0.49486
 Alpha  occ. eigenvalues --   -0.49231  -0.49191  -0.48637  -0.48618  -0.48383
 Alpha  occ. eigenvalues --   -0.48160  -0.47025  -0.46462  -0.46111  -0.45978
 Alpha  occ. eigenvalues --   -0.45698  -0.44704  -0.44224  -0.43941  -0.43131
 Alpha  occ. eigenvalues --   -0.43041  -0.42683  -0.42400  -0.42021  -0.41855
 Alpha  occ. eigenvalues --   -0.41565  -0.41034  -0.40939  -0.40279  -0.39877
 Alpha  occ. eigenvalues --   -0.39354  -0.39185  -0.38919  -0.37793  -0.37337
 Alpha  occ. eigenvalues --   -0.36678  -0.36256  -0.34717  -0.34346  -0.33701
 Alpha  occ. eigenvalues --   -0.33503  -0.31777  -0.30763  -0.30437  -0.29601
 Alpha  occ. eigenvalues --   -0.29133  -0.28527  -0.28494  -0.27702  -0.27220
 Alpha  occ. eigenvalues --   -0.26005  -0.25029  -0.24923  -0.19795
 Alpha virt. eigenvalues --   -0.12745  -0.07917  -0.06252  -0.04214  -0.03568
 Alpha virt. eigenvalues --   -0.00842  -0.00424  -0.00316  -0.00084   0.00382
 Alpha virt. eigenvalues --    0.00893   0.01321   0.01419   0.01859   0.01929

 Mulliken charges:
               1
     1  C    0.270831
     2  C    0.075420
     3  C    0.246054
     4  C    0.256924
     5  C    0.240826
     6  C    0.211427
     7  C    0.255677
     8  C    0.277054
     9  C    0.210467
    10  C   -0.769826
    11  C    0.187249
    12  C    0.143230
    13  C   -0.484838
    14  C   -0.604625
    15  H    0.157601
    16  H    0.161106
    17  H    0.164968
    18  N   -0.134684
    19  N   -0.140989
    20  O   -0.286941
    21  O   -0.268332
    22  O   -0.281219
    23  O   -0.259531
    24  C   -0.167787
    25  H    0.169019
    26  H    0.177079
    27  H    0.182823
    28  C   -0.196800
    29  H    0.172420
    30  H    0.173986
    31  H    0.181696
    32  C   -0.120784
    33  C   -0.023873
    34  S   -0.660432
    35  C   -0.675657
    36  H    0.164903
    37  C    0.565192
    38  O   -0.126718
    39  C    0.989025
    40  C   -0.243450
    41  C    0.036470
    42  S   -0.230437
    43  H    0.166199
    44  H    0.161041
    45  H    0.148994
    46  C   -0.558361
    47  O   -0.126632
    48  C   -0.307679
    49  H    0.133945
    50  C   -0.241905
    51  H    0.163743
    52  H    0.146311
    53  H    0.173066
    54  H    0.146752
 Sum of Mulliken charges =  -0.00000

 Dipole moment (field-independent basis, Debye):
    X=              5.8596    Y=             -0.8400    Z=              0.2501  Tot=              5.9248
 Quadrupole moment (field-independent basis, Debye-Ang):
   XX=           -215.4876   YY=           -209.0835   ZZ=           -221.7643
   XY=             -4.9732   XZ=              0.6549   YZ=              8.6393

 Normal termination of Gaussian 16 at Sun Nov 29 15:27:43 2020.
