 Gaussian 16, Revision C.01,
 Gaussian 16:  ES64L-G16RevC.01  3-Jul-2019

 -------------------------------------
 # opt=modredundant b3lyp/6-311+g(d,p)
 -------------------------------------

 ------------
 NDI_-140.pdb
 ------------
 Symbolic Z-matrix:
 Charge =  0 Multiplicity = 1

 SCF Done:  E(RB3LYP) =  -2359.32214958     A.U. after   17 cycles
 SCF Done:  E(RB3LYP) =  -2359.32293851     A.U. after   18 cycles
 SCF Done:  E(RB3LYP) =  -2359.33099576     A.U. after   14 cycles
 SCF Done:  E(RB3LYP) =  -2359.33456672     A.U. after   14 cycles
 SCF Done:  E(RB3LYP) =  -2359.33501648     A.U. after   13 cycles
 SCF Done:  E(RB3LYP) =  -2359.33527596     A.U. after   13 cycles
 SCF Done:  E(RB3LYP) =  -2359.33546833     A.U. after   13 cycles
 SCF Done:  E(RB3LYP) =  -2359.33557005     A.U. after   15 cycles
 SCF Done:  E(RB3LYP) =  -2359.33577234     A.U. after   14 cycles
 SCF Done:  E(RB3LYP) =  -2359.33577221     A.U. after   12 cycles
 SCF Done:  E(RB3LYP) =  -2359.33585314     A.U. after   13 cycles
 SCF Done:  E(RB3LYP) =  -2359.33587695     A.U. after   12 cycles
 SCF Done:  E(RB3LYP) =  -2359.33593410     A.U. after   12 cycles
 SCF Done:  E(RB3LYP) =  -2359.33593603     A.U. after   12 cycles
 SCF Done:  E(RB3LYP) =  -2359.33593611     A.U. after   12 cycles
 SCF Done:  E(RB3LYP) =  -2359.33593666     A.U. after   11 cycles
 SCF Done:  E(RB3LYP) =  -2359.33593689     A.U. after   11 cycles
 SCF Done:  E(RB3LYP) =  -2359.33593698     A.U. after   11 cycles
 Optimization completed.
    -- Stationary point found.

                         Standard orientation:
 ---------------------------------------------------------------------
 Center     Atomic      Atomic             Coordinates (Angstroms)
 Number     Number       Type             X           Y           Z
 ---------------------------------------------------------------------
      1          6           0       -3.390833   -2.742095    0.421816
      2          6           0       -2.698198   -1.457547    0.139078
      3          6           0       -3.413548   -0.238290    0.165117
      4          6           0       -4.794021   -0.221748    0.454297
      5          6           0       -5.517396   -1.488693    0.744996
      6          6           0       -1.355229   -1.460151   -0.144294
      7          6           0       -2.723946    0.968021   -0.138088
      8          6           0       -1.326773    0.953803   -0.421919
      9          6           0       -0.620740   -0.266054   -0.392162
     10          6           0       -0.706703    2.210645   -0.924327
     11          6           0       -2.834565    3.454628   -0.532039
     12          6           0       -3.473429    2.170408   -0.158214
     13          6           0       -4.826987    2.167308    0.142456
     14          6           0       -5.491581    0.975186    0.452482
     15          1           0       -6.550167    0.966882    0.678254
     16          1           0       -5.358529    3.110262    0.119561
     17          1           0       -0.829585   -2.405634   -0.120027
     18          7           0       -1.500058    3.373886   -0.933209
     19          7           0       -4.762435   -2.673085    0.691697
     20          8           0       -2.812591   -3.813295    0.438060
     21          8           0       -6.704176   -1.509293    1.011350
     22          8           0       -3.437832    4.513484   -0.516537
     23          8           0        0.441152    2.287512   -1.319006
     24          6           0       -0.835016    4.598716   -1.400657
     25          1           0        0.023716    4.819096   -0.766013
     26          1           0       -0.479305    4.457400   -2.421158
     27          1           0       -1.558387    5.406578   -1.355084
     28          6           0       -5.435822   -3.949304    0.972483
     29          1           0       -5.306955   -4.624719    0.126765
     30          1           0       -4.994402   -4.414019    1.854676
     31          1           0       -6.488019   -3.742083    1.139284
     32          6           0        0.828192   -0.453696   -0.518165
     33          6           0        1.441576   -1.468715   -1.226926
     34         16           0        1.990894    0.428418    0.431904
     35          6           0        2.838865   -1.510179   -1.039062
     36          1           0        0.897226   -2.137753   -1.877940
     37          6           0        3.319347   -0.559312   -0.140497
     38          8           0        3.710379   -2.379057   -1.619401
     39          6           0        4.676041   -0.368564    0.294348
     40          6           0        3.208151   -3.261952   -2.617311
     41          6           0        5.155505    0.575085    1.196121
     42         16           0        6.015175   -1.353934   -0.283170
     43          1           0        4.067284   -3.823926   -2.979208
     44          1           0        2.472250   -3.955902   -2.197754
     45          1           0        2.760292   -2.704145   -3.446116
     46          6           0        6.559320    0.512780    1.414276
     47          8           0        4.287816    1.449139    1.769779
     48          6           0        7.146782   -0.481092    0.681842
     49          1           0        7.106408    1.166448    2.077703
     50          6           0        4.800407    2.383763    2.714030
     51          1           0        8.191562   -0.750179    0.654977
     52          1           0        5.534724    3.050403    2.250501
     53          1           0        3.945196    2.966723    3.050969
     54          1           0        5.252654    1.871597    3.569410
 ---------------------------------------------------------------------

 The electronic state is 1-A.
 Alpha  occ. eigenvalues --  -88.88258 -88.88090 -19.17044 -19.16869 -19.12410
 Alpha  occ. eigenvalues --  -19.12392 -19.11733 -19.11586 -14.38583 -14.37997
 Alpha  occ. eigenvalues --  -10.31014 -10.30868 -10.30401 -10.30325 -10.24650
 Alpha  occ. eigenvalues --  -10.24482 -10.23845 -10.23717 -10.23625 -10.22831
 Alpha  occ. eigenvalues --  -10.22528 -10.22497 -10.22239 -10.22218 -10.22094
 Alpha  occ. eigenvalues --  -10.21991 -10.21985 -10.21609 -10.21459 -10.21078
 Alpha  occ. eigenvalues --  -10.21025 -10.21018 -10.20862 -10.20555 -10.19068
 Alpha  occ. eigenvalues --  -10.18848  -7.96811  -7.96638  -5.93121  -5.92962
 Alpha  occ. eigenvalues --   -5.92731  -5.92566  -5.92379  -5.92178  -1.08661
 Alpha  occ. eigenvalues --   -1.08608  -1.08415  -1.08131  -1.06852  -1.06259
 Alpha  occ. eigenvalues --   -0.96219  -0.95600  -0.92413  -0.90270  -0.88723
 Alpha  occ. eigenvalues --   -0.86634  -0.84205  -0.80462  -0.78382  -0.77563
 Alpha  occ. eigenvalues --   -0.76427  -0.75289  -0.75086  -0.73204  -0.72445
 Alpha  occ. eigenvalues --   -0.71499  -0.70469  -0.68836  -0.67047  -0.65833
 Alpha  occ. eigenvalues --   -0.65465  -0.64788  -0.60916  -0.59888  -0.58584
 Alpha  occ. eigenvalues --   -0.57389  -0.56709  -0.56282  -0.55051  -0.54790
 Alpha  occ. eigenvalues --   -0.53727  -0.51622  -0.50196  -0.49913  -0.49638
 Alpha  occ. eigenvalues --   -0.49390  -0.48741  -0.48654  -0.48466  -0.48427
 Alpha  occ. eigenvalues --   -0.48095  -0.47040  -0.46564  -0.46285  -0.45859
 Alpha  occ. eigenvalues --   -0.45512  -0.44909  -0.44609  -0.44277  -0.43817
 Alpha  occ. eigenvalues --   -0.42792  -0.42437  -0.42240  -0.41960  -0.41818
 Alpha  occ. eigenvalues --   -0.41578  -0.41250  -0.41128  -0.40517  -0.39850
 Alpha  occ. eigenvalues --   -0.39415  -0.39030  -0.38811  -0.37709  -0.37331
 Alpha  occ. eigenvalues --   -0.36389  -0.35871  -0.34235  -0.33902  -0.33597
 Alpha  occ. eigenvalues --   -0.33501  -0.32046  -0.30919  -0.30091  -0.29790
 Alpha  occ. eigenvalues --   -0.29278  -0.28806  -0.28625  -0.27957  -0.27457
 Alpha  occ. eigenvalues --   -0.26087  -0.24808  -0.24218  -0.19281
 Alpha virt. eigenvalues --   -0.13044  -0.07193  -0.06330  -0.04644  -0.03850
 Alpha virt. eigenvalues --   -0.00849  -0.00444  -0.00341  -0.00027   0.00434
 Alpha virt. eigenvalues --    0.00722   0.01079   0.01388   0.01551   0.01936

 Mulliken charges:
               1
     1  C    0.281980
     2  C   -0.008023
     3  C    0.209912
     4  C    0.283622
     5  C    0.308247
     6  C   -0.208214
     7  C    0.147435
     8  C    0.015893
     9  C    0.149305
    10  C   -0.245243
    11  C    0.215620
    12  C    0.181690
    13  C   -0.436056
    14  C   -0.654871
    15  H    0.159707
    16  H    0.161268
    17  H    0.167884
    18  N   -0.112229
    19  N   -0.140283
    20  O   -0.279278
    21  O   -0.270364
    22  O   -0.279338
    23  O   -0.212372
    24  C   -0.177065
    25  H    0.176209
    26  H    0.177107
    27  H    0.182367
    28  C   -0.196586
    29  H    0.173230
    30  H    0.175189
    31  H    0.182509
    32  C   -0.034091
    33  C   -0.290248
    34  S   -0.555244
    35  C   -0.251447
    36  H    0.133772
    37  C    0.455434
    38  O   -0.121240
    39  C    0.972252
    40  C   -0.242822
    41  C   -0.000865
    42  S   -0.236434
    43  H    0.166871
    44  H    0.148737
    45  H    0.150452
    46  C   -0.528320
    47  O   -0.136231
    48  C   -0.268172
    49  H    0.131321
    50  C   -0.240103
    51  H    0.160349
    52  H    0.145242
    53  H    0.166003
    54  H    0.145531
 Sum of Mulliken charges =  -0.00000

 Dipole moment (field-independent basis, Debye):
    X=              3.8762    Y=             -0.5121    Z=              0.1934  Tot=              3.9147
 Quadrupole moment (field-independent basis, Debye-Ang):
   XX=           -215.2043   YY=           -222.8820   ZZ=           -210.5753
   XY=              9.1992   XZ=             10.8385   YZ=             15.1248

 Normal termination of Gaussian 16 at Sun Nov 29 16:23:09 2020.
