 Gaussian 16, Revision C.01,
 Gaussian 16:  ES64L-G16RevC.01  3-Jul-2019

 -------------------------------------
 # opt=modredundant b3lyp/6-311+g(d,p)
 -------------------------------------

 -----------
 NDI_130.pdb
 -----------
 Symbolic Z-matrix:
 Charge =  0 Multiplicity = 1

 SCF Done:  E(RB3LYP) =  -2359.32933826     A.U. after   18 cycles
 SCF Done:  E(RB3LYP) =  -2359.32984046     A.U. after   18 cycles
 SCF Done:  E(RB3LYP) =  -2359.33489096     A.U. after   16 cycles
 SCF Done:  E(RB3LYP) =  -2359.33565218     A.U. after   13 cycles
 SCF Done:  E(RB3LYP) =  -2359.33582294     A.U. after   14 cycles
 SCF Done:  E(RB3LYP) =  -2359.33603577     A.U. after   12 cycles
 SCF Done:  E(RB3LYP) =  -2359.33605989     A.U. after   12 cycles
 SCF Done:  E(RB3LYP) =  -2359.33606610     A.U. after   11 cycles
 SCF Done:  E(RB3LYP) =  -2359.33606706     A.U. after   10 cycles
 SCF Done:  E(RB3LYP) =  -2359.33606774     A.U. after    9 cycles
 SCF Done:  E(RB3LYP) =  -2359.33606781     A.U. after    9 cycles
 Optimization completed.
    -- Stationary point found.

                         Standard orientation:
 ---------------------------------------------------------------------
 Center     Atomic      Atomic             Coordinates (Angstroms)
 Number     Number       Type             X           Y           Z
 ---------------------------------------------------------------------
      1          6           0        3.428737   -2.737936    0.417911
      2          6           0        2.717937   -1.464158    0.131773
      3          6           0        3.417987   -0.236166    0.150006
      4          6           0        4.798062   -0.198983    0.442722
      5          6           0        5.535627   -1.453497    0.752090
      6          6           0        1.369378   -1.482111   -0.132403
      7          6           0        2.715493    0.961287   -0.157980
      8          6           0        1.319633    0.927406   -0.439340
      9          6           0        0.628004   -0.295860   -0.383688
     10          6           0        0.677280    2.172285   -0.948159
     11          6           0        2.783088    3.450517   -0.545516
     12          6           0        3.446028    2.174825   -0.179739
     13          6           0        4.798994    2.190655    0.120150
     14          6           0        5.478557    1.007135    0.435168
     15          1           0        6.536426    1.014335    0.664606
     16          1           0        5.318434    3.140344    0.097447
     17          1           0        0.848778   -2.430655   -0.101726
     18          7           0        1.446876    3.351419   -0.938770
     19          7           0        4.794328   -2.646682    0.712764
     20          8           0        2.871560   -3.820038    0.407236
     21          8           0        6.721612   -1.456024    1.022564
     22          8           0        3.370021    4.518115   -0.528659
     23          8           0       -0.462538    2.221281   -1.367109
     24          6           0        0.762185    4.566535   -1.403674
     25          1           0        0.424326    4.428880   -2.430820
     26          1           0       -0.110383    4.760025   -0.779358
     27          1           0        1.466498    5.389751   -1.338911
     28          6           0        5.483017   -3.912344    1.004550
     29          1           0        5.003431   -4.404571    1.850658
     30          1           0        5.420395   -4.573803    0.140038
     31          1           0        6.519028   -3.683645    1.233197
     32          6           0       -0.823677   -0.477292   -0.510466
     33          6           0       -1.460366   -1.369591   -1.343846
     34         16           0       -1.956997    0.317966    0.544202
     35          6           0       -2.862497   -1.388435   -1.160564
     36          1           0       -0.933458   -1.962491   -2.077832
     37          6           0       -3.316835   -0.541016   -0.154299
     38          8           0       -3.760391   -2.132351   -1.861973
     39          6           0       -4.668550   -0.364457    0.305065
     40          6           0       -3.256650   -3.088762   -2.788493
     41          6           0       -5.120811    0.476665    1.314534
     42         16           0       -6.034422   -1.236760   -0.380318
     43          1           0       -4.128240   -3.596277   -3.198041
     44          1           0       -2.707231   -2.600627   -3.600176
     45          1           0       -2.609727   -3.818201   -2.290150
     46          6           0       -6.525656    0.425848    1.531132
     47          8           0       -4.227359    1.247680    1.990322
     48          6           0       -7.141525   -0.456131    0.687506
     49          1           0       -7.053497    1.009535    2.271056
     50          6           0       -4.723592    2.127284    2.993694
     51          1           0       -8.193347   -0.691178    0.632439
     52          1           0       -5.212628    1.570579    3.799734
     53          1           0       -3.854212    2.648660    3.390288
     54          1           0       -5.422635    2.855367    2.569616
 ---------------------------------------------------------------------

 The electronic state is 1-A.
 Alpha  occ. eigenvalues --  -88.88060 -88.87988 -19.16854 -19.16734 -19.12512
 Alpha  occ. eigenvalues --  -19.12481 -19.11915 -19.11778 -14.38675 -14.38135
 Alpha  occ. eigenvalues --  -10.31122 -10.30959 -10.30554 -10.30514 -10.24400
 Alpha  occ. eigenvalues --  -10.24334 -10.23720 -10.23617 -10.23615 -10.22966
 Alpha  occ. eigenvalues --  -10.22708 -10.22690 -10.22387 -10.22380 -10.22197
 Alpha  occ. eigenvalues --  -10.21850 -10.21823 -10.21567 -10.21410 -10.21276
 Alpha  occ. eigenvalues --  -10.21220 -10.21087 -10.20658 -10.20634 -10.18903
 Alpha  occ. eigenvalues --  -10.18663  -7.96614  -7.96541  -5.92924  -5.92865
 Alpha  occ. eigenvalues --   -5.92535  -5.92472  -5.92182  -5.92077  -1.08756
 Alpha  occ. eigenvalues --   -1.08403  -1.08288  -1.08269  -1.06951  -1.06433
 Alpha  occ. eigenvalues --   -0.96316  -0.95750  -0.92566  -0.90135  -0.88596
 Alpha  occ. eigenvalues --   -0.86715  -0.84357  -0.80452  -0.78522  -0.77480
 Alpha  occ. eigenvalues --   -0.76302  -0.75224  -0.75086  -0.73076  -0.72537
 Alpha  occ. eigenvalues --   -0.71562  -0.70337  -0.68803  -0.67154  -0.65950
 Alpha  occ. eigenvalues --   -0.65543  -0.64856  -0.60878  -0.59801  -0.58599
 Alpha  occ. eigenvalues --   -0.57471  -0.56703  -0.56130  -0.55132  -0.54652
 Alpha  occ. eigenvalues --   -0.53783  -0.51736  -0.50270  -0.49919  -0.49732
 Alpha  occ. eigenvalues --   -0.49443  -0.48703  -0.48597  -0.48548  -0.48313
 Alpha  occ. eigenvalues --   -0.47993  -0.47170  -0.46631  -0.46380  -0.45794
 Alpha  occ. eigenvalues --   -0.45411  -0.44974  -0.44720  -0.44386  -0.43930
 Alpha  occ. eigenvalues --   -0.42811  -0.42439  -0.42274  -0.41988  -0.41806
 Alpha  occ. eigenvalues --   -0.41446  -0.41310  -0.41213  -0.40592  -0.39936
 Alpha  occ. eigenvalues --   -0.39509  -0.39018  -0.38598  -0.37765  -0.37378
 Alpha  occ. eigenvalues --   -0.36274  -0.35748  -0.34138  -0.33782  -0.33523
 Alpha  occ. eigenvalues --   -0.33288  -0.32211  -0.31022  -0.30152  -0.29799
 Alpha  occ. eigenvalues --   -0.29310  -0.28913  -0.28701  -0.28086  -0.27493
 Alpha  occ. eigenvalues --   -0.26209  -0.24684  -0.24174  -0.19142
 Alpha virt. eigenvalues --   -0.13155  -0.07103  -0.06315  -0.04779  -0.03971
 Alpha virt. eigenvalues --   -0.00866  -0.00435  -0.00289   0.00023   0.00538
 Alpha virt. eigenvalues --    0.00687   0.01065   0.01250   0.01434   0.01881

 Mulliken charges:
               1
     1  C    0.327503
     2  C   -0.041032
     3  C    0.170177
     4  C    0.241196
     5  C    0.216427
     6  C   -0.323458
     7  C    0.200973
     8  C    0.028490
     9  C    0.292425
    10  C   -0.344258
    11  C    0.258790
    12  C    0.108202
    13  C   -0.449973
    14  C   -0.606286
    15  H    0.160034
    16  H    0.161521
    17  H    0.164381
    18  N   -0.108022
    19  N   -0.141962
    20  O   -0.277088
    21  O   -0.270756
    22  O   -0.278543
    23  O   -0.198601
    24  C   -0.176956
    25  H    0.177307
    26  H    0.177351
    27  H    0.182597
    28  C   -0.196324
    29  H    0.174937
    30  H    0.173703
    31  H    0.182488
    32  C    0.359180
    33  C   -0.570927
    34  S   -0.491960
    35  C   -0.094406
    36  H    0.128077
    37  C    0.495506
    38  O   -0.132577
    39  C    0.857423
    40  C   -0.228697
    41  C    0.015071
    42  S   -0.272434
    43  H    0.165858
    44  H    0.145881
    45  H    0.152239
    46  C   -0.592083
    47  O   -0.139332
    48  C   -0.288206
    49  H    0.130636
    50  C   -0.238121
    51  H    0.159378
    52  H    0.143692
    53  H    0.164902
    54  H    0.145658
 Sum of Mulliken charges =  -0.00000

 Dipole moment (field-independent basis, Debye):
    X=             -3.2797    Y=             -0.5067    Z=              0.3475  Tot=              3.3368
 Quadrupole moment (field-independent basis, Debye-Ang):
   XX=           -216.6080   YY=           -224.1161   ZZ=           -208.8088
   XY=             -7.7786   XZ=            -11.3229   YZ=             14.5492

 Normal termination of Gaussian 16 at Sun Nov 29 15:03:43 2020.
