 Gaussian 16, Revision C.01,
 Gaussian 16:  ES64L-G16RevC.01  3-Jul-2019

 -------------------------------------
 # opt=modredundant b3lyp/6-311+g(d,p)
 -------------------------------------

 -----------
 NDI_150.pdb
 -----------
 Symbolic Z-matrix:
 Charge =  0 Multiplicity = 1

 SCF Done:  E(RB3LYP) =  -2359.31440884     A.U. after   18 cycles
 SCF Done:  E(RB3LYP) =  -2359.32326800     A.U. after   17 cycles
 SCF Done:  E(RB3LYP) =  -2359.32943465     A.U. after   17 cycles
 SCF Done:  E(RB3LYP) =  -2359.33338046     A.U. after   16 cycles
 SCF Done:  E(RB3LYP) =  -2359.33431789     A.U. after   16 cycles
 SCF Done:  E(RB3LYP) =  -2359.33499084     A.U. after   17 cycles
 SCF Done:  E(RB3LYP) =  -2359.33541803     A.U. after   13 cycles
 SCF Done:  E(RB3LYP) =  -2359.33567574     A.U. after   13 cycles
 SCF Done:  E(RB3LYP) =  -2359.33584114     A.U. after   16 cycles
 SCF Done:  E(RB3LYP) =  -2359.33597446     A.U. after   13 cycles
 SCF Done:  E(RB3LYP) =  -2359.33601972     A.U. after   13 cycles
 SCF Done:  E(RB3LYP) =  -2359.33604351     A.U. after   12 cycles
 SCF Done:  E(RB3LYP) =  -2359.33604212     A.U. after   12 cycles
 SCF Done:  E(RB3LYP) =  -2359.33604756     A.U. after   12 cycles
 SCF Done:  E(RB3LYP) =  -2359.33604774     A.U. after   10 cycles
 SCF Done:  E(RB3LYP) =  -2359.33604785     A.U. after   11 cycles
 SCF Done:  E(RB3LYP) =  -2359.33604804     A.U. after   10 cycles
 Optimization completed.
    -- Stationary point found.

                         Standard orientation:
 ---------------------------------------------------------------------
 Center     Atomic      Atomic             Coordinates (Angstroms)
 Number     Number       Type             X           Y           Z
 ---------------------------------------------------------------------
      1          6           0        3.406384   -2.732882    0.342735
      2          6           0        2.708700   -1.447170    0.078837
      3          6           0        3.414568   -0.223674    0.142252
      4          6           0        4.788153   -0.202754    0.458573
      5          6           0        5.514339   -1.469658    0.741127
      6          6           0        1.366680   -1.452702   -0.201857
      7          6           0        2.716777    0.982231   -0.142087
      8          6           0        1.323217    0.963115   -0.446116
      9          6           0        0.618866   -0.261784   -0.437171
     10          6           0        0.708828    2.225155   -0.936823
     11          6           0        2.810528    3.480720   -0.455746
     12          6           0        3.455567    2.191409   -0.114839
     13          6           0        4.804257    2.192674    0.209460
     14          6           0        5.475325    1.000074    0.499941
     15          1           0        6.529070    0.995861    0.747199
     16          1           0        5.325479    3.141544    0.223596
     17          1           0        0.853578   -2.404474   -0.186296
     18          7           0        1.484127    3.398931   -0.882121
     19          7           0        4.767813   -2.658197    0.656660
     20          8           0        2.841951   -3.811056    0.298624
     21          8           0        6.696323   -1.487877    1.028147
     22          8           0        3.401449    4.545162   -0.395001
     23          8           0       -0.421221    2.297955   -1.383081
     24          6           0        0.817722    4.628777   -1.333660
     25          1           0        0.502826    4.517796   -2.371268
     26          1           0       -0.067963    4.813966   -0.725433
     27          1           0        1.525753    5.445206   -1.232909
     28          6           0        5.446074   -3.934924    0.922575
     29          1           0        4.953710   -4.447261    1.749224
     30          1           0        5.390780   -4.572486    0.039770
     31          1           0        6.480372   -3.718166    1.169879
     32          6           0       -0.826626   -0.466323   -0.549709
     33          6           0       -1.424695   -1.583919   -1.110576
     34         16           0       -2.012844    0.508930    0.275409
     35          6           0       -2.815286   -1.637728   -0.903592
     36          1           0       -0.872449   -2.321044   -1.675139
     37          6           0       -3.314383   -0.586629   -0.133382
     38          8           0       -3.672712   -2.582139   -1.376120
     39          6           0       -4.672901   -0.372401    0.280377
     40          6           0       -3.119097   -3.712454   -2.042721
     41          6           0       -5.172165    0.670445    1.054470
     42         16           0       -5.989176   -1.459461   -0.149675
     43          1           0       -3.962096   -4.352800   -2.295891
     44          1           0       -2.601603   -3.414526   -2.960496
     45          1           0       -2.429649   -4.256722   -1.389143
     46          6           0       -6.572033    0.600687    1.292930
     47          8           0       -4.324245    1.630289    1.504416
     48          6           0       -7.136665   -0.496349    0.703469
     49          1           0       -7.132490    1.321457    1.870013
     50          6           0       -4.867065    2.706675    2.263353
     51          1           0       -8.174020   -0.793510    0.723069
     52          1           0       -5.325377    2.343987    3.189004
     53          1           0       -4.026420    3.354356    2.504989
     54          1           0       -5.603543    3.267822    1.679507
 ---------------------------------------------------------------------

 The electronic state is 1-A.
 Alpha  occ. eigenvalues --  -88.88470 -88.88219 -19.17260 -19.17014 -19.12326
 Alpha  occ. eigenvalues --  -19.12322 -19.11583 -19.11445 -14.38507 -14.37875
 Alpha  occ. eigenvalues --  -10.30923 -10.30794 -10.30264 -10.30167 -10.24920
 Alpha  occ. eigenvalues --  -10.24628 -10.23991 -10.23810 -10.23636 -10.22688
 Alpha  occ. eigenvalues --  -10.22370 -10.22340 -10.22291 -10.22137 -10.22093
 Alpha  occ. eigenvalues --  -10.22069 -10.21825 -10.21807 -10.21370 -10.21109
 Alpha  occ. eigenvalues --  -10.20961 -10.20900 -10.20846 -10.20482 -10.19227
 Alpha  occ. eigenvalues --  -10.19054  -7.97022  -7.96764  -5.93332  -5.93086
 Alpha  occ. eigenvalues --   -5.92943  -5.92687  -5.92591  -5.92307  -1.08835
 Alpha  occ. eigenvalues --   -1.08578  -1.08569  -1.07998  -1.06768  -1.06113
 Alpha  occ. eigenvalues --   -0.96136  -0.95478  -0.92279  -0.90419  -0.88865
 Alpha  occ. eigenvalues --   -0.86556  -0.84068  -0.80487  -0.78258  -0.77662
 Alpha  occ. eigenvalues --   -0.76555  -0.75464  -0.75002  -0.73346  -0.72370
 Alpha  occ. eigenvalues --   -0.71449  -0.70623  -0.68887  -0.66962  -0.65737
 Alpha  occ. eigenvalues --   -0.65399  -0.64727  -0.60977  -0.59998  -0.58570
 Alpha  occ. eigenvalues --   -0.57348  -0.56735  -0.56441  -0.55109  -0.54827
 Alpha  occ. eigenvalues --   -0.53694  -0.51522  -0.50166  -0.49922  -0.49557
 Alpha  occ. eigenvalues --   -0.49313  -0.48899  -0.48653  -0.48579  -0.48367
 Alpha  occ. eigenvalues --   -0.48177  -0.46959  -0.46545  -0.46220  -0.45883
 Alpha  occ. eigenvalues --   -0.45626  -0.44853  -0.44515  -0.44213  -0.43719
 Alpha  occ. eigenvalues --   -0.42899  -0.42407  -0.42202  -0.41968  -0.41767
 Alpha  occ. eigenvalues --   -0.41724  -0.41177  -0.41059  -0.40465  -0.39824
 Alpha  occ. eigenvalues --   -0.39378  -0.39147  -0.38810  -0.37756  -0.37355
 Alpha  occ. eigenvalues --   -0.36559  -0.36000  -0.34368  -0.34136  -0.33608
 Alpha  occ. eigenvalues --   -0.33489  -0.31908  -0.30836  -0.30211  -0.29694
 Alpha  occ. eigenvalues --   -0.29258  -0.28715  -0.28571  -0.27859  -0.27408
 Alpha  occ. eigenvalues --   -0.25989  -0.24949  -0.24307  -0.19440
 Alpha virt. eigenvalues --   -0.12941  -0.07376  -0.06291  -0.04507  -0.03763
 Alpha virt. eigenvalues --   -0.00830  -0.00526  -0.00340  -0.00047   0.00363
 Alpha virt. eigenvalues --    0.00801   0.01101   0.01440   0.01676   0.01962

 Mulliken charges:
               1
     1  C    0.299613
     2  C    0.007634
     3  C    0.190100
     4  C    0.258654
     5  C    0.199687
     6  C   -0.039137
     7  C    0.180721
     8  C    0.115224
     9  C    0.238156
    10  C   -0.391183
    11  C    0.290780
    12  C    0.102127
    13  C   -0.476466
    14  C   -0.600971
    15  H    0.158736
    16  H    0.160880
    17  H    0.162490
    18  N   -0.096283
    19  N   -0.142941
    20  O   -0.282886
    21  O   -0.269528
    22  O   -0.280303
    23  O   -0.219952
    24  C   -0.179183
    25  H    0.177826
    26  H    0.174889
    27  H    0.181911
    28  C   -0.193841
    29  H    0.174162
    30  H    0.173157
    31  H    0.182090
    32  C    0.059775
    33  C   -0.707860
    34  S   -0.610233
    35  C   -0.068467
    36  H    0.135270
    37  C    0.733252
    38  O   -0.138253
    39  C    0.872010
    40  C   -0.226960
    41  C   -0.009742
    42  S   -0.256192
    43  H    0.166724
    44  H    0.145777
    45  H    0.154078
    46  C   -0.611464
    47  O   -0.130172
    48  C   -0.274793
    49  H    0.132059
    50  C   -0.241464
    51  H    0.161389
    52  H    0.145101
    53  H    0.166789
    54  H    0.147212
 Sum of Mulliken charges =  -0.00000

 Dipole moment (field-independent basis, Debye):
    X=             -4.4591    Y=             -0.7232    Z=              0.5392  Tot=              4.5495
 Quadrupole moment (field-independent basis, Debye-Ang):
   XX=           -213.7089   YY=           -218.4963   ZZ=           -215.7821
   XY=             -9.7767   XZ=            -11.6349   YZ=             13.2885

 Normal termination of Gaussian 16 at Sun Nov 29 17:00:08 2020.
