 Gaussian 16, Revision C.01,
 Gaussian 16:  ES64L-G16RevC.01  3-Jul-2019

 -------------------------------------
 # opt=modredundant b3lyp/6-311+g(d,p)
 -------------------------------------

 ----------
 NDI_25.pdb
 ----------
 Symbolic Z-matrix:
 Charge =  0 Multiplicity = 1

 SCF Done:  E(RB3LYP) =  -2359.32719579     A.U. after   17 cycles
 SCF Done:  E(RB3LYP) =  -2359.31839747     A.U. after   18 cycles
 SCF Done:  E(RB3LYP) =  -2359.33124453     A.U. after   15 cycles
 SCF Done:  E(RB3LYP) =  -2359.33531144     A.U. after   16 cycles
 SCF Done:  E(RB3LYP) =  -2359.33634994     A.U. after   16 cycles
 SCF Done:  E(RB3LYP) =  -2359.33677426     A.U. after   14 cycles
 SCF Done:  E(RB3LYP) =  -2359.33695698     A.U. after   16 cycles
 SCF Done:  E(RB3LYP) =  -2359.33719891     A.U. after   13 cycles
 SCF Done:  E(RB3LYP) =  -2359.33731286     A.U. after   14 cycles
 SCF Done:  E(RB3LYP) =  -2359.33733560     A.U. after   13 cycles
 SCF Done:  E(RB3LYP) =  -2359.33737273     A.U. after   13 cycles
 SCF Done:  E(RB3LYP) =  -2359.33737600     A.U. after   11 cycles
 SCF Done:  E(RB3LYP) =  -2359.33737748     A.U. after   11 cycles
 SCF Done:  E(RB3LYP) =  -2359.33737768     A.U. after   10 cycles
 SCF Done:  E(RB3LYP) =  -2359.33737774     A.U. after    9 cycles
 Optimization completed.
    -- Stationary point found.

                         Standard orientation:
 ---------------------------------------------------------------------
 Center     Atomic      Atomic             Coordinates (Angstroms)
 Number     Number       Type             X           Y           Z
 ---------------------------------------------------------------------
      1          6           0       -2.510417   -3.007007    0.329441
      2          6           0       -2.229520   -1.554585    0.177764
      3          6           0       -3.288770   -0.621616    0.098226
      4          6           0       -4.627529   -1.056764    0.155349
      5          6           0       -4.945817   -2.502247    0.303436
      6          6           0       -0.932170   -1.125547    0.125758
      7          6           0       -2.970718    0.755253   -0.067920
      8          6           0       -1.610228    1.198454   -0.115453
      9          6           0       -0.557333    0.250020    0.013085
     10          6           0       -1.376546    2.624658   -0.463641
     11          6           0       -3.827632    3.097577   -0.426860
     12          6           0       -4.058353    1.657425   -0.188529
     13          6           0       -5.371428    1.212500   -0.114560
     14          6           0       -5.664492   -0.141735    0.059448
     15          1           0       -6.686304   -0.494973    0.107921
     16          1           0       -6.162264    1.945983   -0.207739
     17          1           0       -0.164659   -1.881039    0.230296
     18          7           0       -2.494632    3.470580   -0.594598
     19          7           0       -3.855943   -3.387396    0.364099
     20          8           0       -1.630744   -3.842073    0.434519
     21          8           0       -6.090742   -2.908977    0.365745
     22          8           0       -4.735830    3.908425   -0.496998
     23          8           0       -0.275707    3.117556   -0.647631
     24          6           0       -2.202262    4.873834   -0.919922
     25          1           0       -1.577341    5.314055   -0.142370
     26          1           0       -1.661649    4.927885   -1.864703
     27          1           0       -3.148742    5.400482   -0.988561
     28          6           0       -4.123896   -4.824865    0.512680
     29          1           0       -3.655795   -5.370692   -0.306491
     30          1           0       -3.702025   -5.184710    1.451662
     31          1           0       -5.199822   -4.966848    0.501164
     32          6           0        0.873746    0.501618    0.151056
     33          6           0        1.575026    1.590802    0.634067
     34         16           0        2.001702   -0.770731   -0.322486
     35          6           0        2.966806    1.403861    0.649264
     36          1           0        1.095780    2.492370    0.969527
     37          6           0        3.392569    0.171889    0.145738
     38          8           0        3.897080    2.301909    1.065282
     39          6           0        4.739962   -0.295319   -0.006643
     40          6           0        3.437670    3.509298    1.669544
     41          6           0        5.160929   -1.531129   -0.490867
     42         16           0        6.146662    0.674034    0.418503
     43          1           0        4.333253    4.062105    1.947053
     44          1           0        2.845132    4.100541    0.964855
     45          1           0        2.845286    3.297374    2.565310
     46          6           0        6.572392   -1.694887   -0.518415
     47          8           0        4.234485   -2.443506   -0.876430
     48          6           0        7.224086   -0.584409   -0.057044
     49          1           0        7.080116   -2.584843   -0.860122
     50          6           0        4.689012   -3.688920   -1.400355
     51          1           0        8.289519   -0.436994    0.032396
     52          1           0        5.269084   -4.240841   -0.654143
     53          1           0        3.791608   -4.251626   -1.649982
     54          1           0        5.290145   -3.539002   -2.302629
 ---------------------------------------------------------------------

 The electronic state is 1-A.
 Alpha  occ. eigenvalues --  -88.88757 -88.88604 -19.17552 -19.17113 -19.12176
 Alpha  occ. eigenvalues --  -19.12156 -19.11393 -19.11386 -14.38360 -14.37825
 Alpha  occ. eigenvalues --  -10.30768 -10.30625 -10.30348 -10.29947 -10.25271
 Alpha  occ. eigenvalues --  -10.24845 -10.24141 -10.23849 -10.23695 -10.22832
 Alpha  occ. eigenvalues --  -10.22625 -10.22309 -10.22307 -10.22136 -10.22126
 Alpha  occ. eigenvalues --  -10.21901 -10.21877 -10.21556 -10.21423 -10.21181
 Alpha  occ. eigenvalues --  -10.20851 -10.20647 -10.20571 -10.20492 -10.19322
 Alpha  occ. eigenvalues --  -10.18937  -7.97307  -7.97174  -5.93617  -5.93491
 Alpha  occ. eigenvalues --   -5.93227  -5.93100  -5.92875  -5.92719  -1.09125
 Alpha  occ. eigenvalues --   -1.08685  -1.08439  -1.07943  -1.06619  -1.05991
 Alpha  occ. eigenvalues --   -0.96004  -0.95369  -0.92099  -0.90625  -0.89035
 Alpha  occ. eigenvalues --   -0.86428  -0.83898  -0.80454  -0.78204  -0.77841
 Alpha  occ. eigenvalues --   -0.76639  -0.75603  -0.74919  -0.73448  -0.72246
 Alpha  occ. eigenvalues --   -0.71765  -0.70559  -0.68858  -0.66934  -0.65590
 Alpha  occ. eigenvalues --   -0.65466  -0.64449  -0.61257  -0.60061  -0.58522
 Alpha  occ. eigenvalues --   -0.57260  -0.56777  -0.56648  -0.55240  -0.54978
 Alpha  occ. eigenvalues --   -0.53340  -0.51466  -0.50301  -0.49836  -0.49527
 Alpha  occ. eigenvalues --   -0.49243  -0.49090  -0.48639  -0.48580  -0.48361
 Alpha  occ. eigenvalues --   -0.48176  -0.46950  -0.46446  -0.46181  -0.45895
 Alpha  occ. eigenvalues --   -0.45720  -0.44756  -0.44279  -0.43978  -0.43320
 Alpha  occ. eigenvalues --   -0.42958  -0.42673  -0.42369  -0.41962  -0.41875
 Alpha  occ. eigenvalues --   -0.41624  -0.41040  -0.40956  -0.40312  -0.39869
 Alpha  occ. eigenvalues --   -0.39315  -0.39258  -0.38965  -0.37811  -0.37343
 Alpha  occ. eigenvalues --   -0.36647  -0.36058  -0.34604  -0.34238  -0.33733
 Alpha  occ. eigenvalues --   -0.33650  -0.31833  -0.30819  -0.30389  -0.29640
 Alpha  occ. eigenvalues --   -0.29150  -0.28609  -0.28509  -0.27816  -0.27198
 Alpha  occ. eigenvalues --   -0.25976  -0.24942  -0.24787  -0.19669
 Alpha virt. eigenvalues --   -0.12822  -0.07661  -0.06290  -0.04307  -0.03649
 Alpha virt. eigenvalues --   -0.00822  -0.00473  -0.00315  -0.00040   0.00377
 Alpha virt. eigenvalues --    0.00866   0.01249   0.01455   0.01755   0.01944

 Mulliken charges:
               1
     1  C    0.247081
     2  C    0.003812
     3  C    0.238579
     4  C    0.210757
     5  C    0.231162
     6  C    0.060193
     7  C    0.256101
     8  C    0.401412
     9  C    0.280429
    10  C   -0.678499
    11  C    0.203728
    12  C    0.134046
    13  C   -0.481266
    14  C   -0.599695
    15  H    0.157829
    16  H    0.160869
    17  H    0.171640
    18  N   -0.132349
    19  N   -0.140105
    20  O   -0.284015
    21  O   -0.268987
    22  O   -0.279543
    23  O   -0.237558
    24  C   -0.179375
    25  H    0.168974
    26  H    0.176616
    27  H    0.182572
    28  C   -0.198603
    29  H    0.172779
    30  H    0.174166
    31  H    0.181963
    32  C   -0.125083
    33  C   -0.407976
    34  S   -0.661579
    35  C   -0.271726
    36  H    0.152106
    37  C    0.746078
    38  O   -0.127940
    39  C    0.867710
    40  C   -0.237484
    41  C    0.000348
    42  S   -0.244791
    43  H    0.165811
    44  H    0.159900
    45  H    0.148352
    46  C   -0.602956
    47  O   -0.128913
    48  C   -0.285438
    49  H    0.133403
    50  C   -0.241013
    51  H    0.162835
    52  H    0.146125
    53  H    0.170975
    54  H    0.146541
 Sum of Mulliken charges =  -0.00000

 Dipole moment (field-independent basis, Debye):
    X=              5.4061    Y=             -0.7820    Z=              0.2810  Tot=              5.4696
 Quadrupole moment (field-independent basis, Debye-Ang):
   XX=           -216.2806   YY=           -211.6477   ZZ=           -219.0555
   XY=             -4.7138   XZ=             -1.7535   YZ=             12.7305

 Normal termination of Gaussian 16 at Sun Nov 29 14:43:08 2020.
