 Gaussian 16, Revision C.01,
 Gaussian 16:  ES64L-G16RevC.01  3-Jul-2019

 -------------------------------------
 # opt=modredundant b3lyp/6-311+g(d,p)
 -------------------------------------

 -----------
 NDI_-20.pdb
 -----------
 Symbolic Z-matrix:
 Charge =  0 Multiplicity = 1

 SCF Done:  E(RB3LYP) =  -2359.33332171     A.U. after   17 cycles
 SCF Done:  E(RB3LYP) =  -2359.31632672     A.U. after   18 cycles
 SCF Done:  E(RB3LYP) =  -2359.33435151     A.U. after   15 cycles
 SCF Done:  E(RB3LYP) =  -2359.33660111     A.U. after   16 cycles
 SCF Done:  E(RB3LYP) =  -2359.33678784     A.U. after   17 cycles
 SCF Done:  E(RB3LYP) =  -2359.33717924     A.U. after   13 cycles
 SCF Done:  E(RB3LYP) =  -2359.33720812     A.U. after   12 cycles
 SCF Done:  E(RB3LYP) =  -2359.33721580     A.U. after   12 cycles
 SCF Done:  E(RB3LYP) =  -2359.33721778     A.U. after   12 cycles
 SCF Done:  E(RB3LYP) =  -2359.33721809     A.U. after   11 cycles
 SCF Done:  E(RB3LYP) =  -2359.33721836     A.U. after    9 cycles
 Optimization completed.
    -- Stationary point found.

                         Standard orientation:
 ---------------------------------------------------------------------
 Center     Atomic      Atomic             Coordinates (Angstroms)
 Number     Number       Type             X           Y           Z
 ---------------------------------------------------------------------
      1          6           0        2.500696   -3.022069    0.220771
      2          6           0        2.224534   -1.565489    0.105211
      3          6           0        3.286067   -0.631879    0.082583
      4          6           0        4.622083   -1.068735    0.174008
      5          6           0        4.935163   -2.517129    0.303336
      6          6           0        0.928972   -1.132359    0.049399
      7          6           0        2.972591    0.748721   -0.057932
      8          6           0        1.614121    1.194036   -0.132982
      9          6           0        0.556262    0.246069   -0.034471
     10          6           0        1.393902    2.621376   -0.484024
     11          6           0        3.838437    3.100166   -0.319547
     12          6           0        4.063001    1.653612   -0.117966
     13          6           0        5.373274    1.206590   -0.011590
     14          6           0        5.661332   -0.151759    0.136540
     15          1           0        6.681083   -0.506162    0.212194
     16          1           0        6.166207    1.942382   -0.056326
     17          1           0        0.161207   -1.891577    0.120593
     18          7           0        2.512165    3.475645   -0.531658
     19          7           0        3.843565   -3.402545    0.310681
     20          8           0        1.618968   -3.861365    0.244966
     21          8           0        6.077320   -2.926080    0.394838
     22          8           0        4.746213    3.914493   -0.327921
     23          8           0        0.304440    3.107913   -0.740469
     24          6           0        2.231371    4.883645   -0.846122
     25          1           0        1.750468    4.955473   -1.821588
     26          1           0        1.556932    5.304071   -0.099635
     27          1           0        3.176907    5.416508   -0.844497
     28          6           0        4.106636   -4.843531    0.431220
     29          1           0        3.602282   -5.236498    1.314133
     30          1           0        3.720703   -5.363160   -0.446255
     31          1           0        5.180176   -4.981059    0.512161
     32          6           0       -0.871867    0.500293    0.117259
     33          6           0       -1.568417    1.611085    0.557892
     34         16           0       -2.008785   -0.787672   -0.293615
     35          6           0       -2.960093    1.430409    0.588572
     36          1           0       -1.086205    2.525447    0.851210
     37          6           0       -3.392878    0.178335    0.142849
     38          8           0       -3.882758    2.339032    0.997326
     39          6           0       -4.742227   -0.292512    0.026156
     40          6           0       -3.430675    3.655570    1.310885
     41          6           0       -5.170420   -1.545287   -0.405941
     42         16           0       -6.142620    0.695131    0.429795
     43          1           0       -4.326453    4.231386    1.536075
     44          1           0       -2.774493    3.646070    2.187007
     45          1           0       -2.906344    4.102285    0.461034
     46          6           0       -6.582383   -1.706667   -0.412779
     47          8           0       -4.250062   -2.470664   -0.773414
     48          6           0       -7.227027   -0.578154    0.013483
     49          1           0       -7.095374   -2.607561   -0.715741
     50          6           0       -4.709314   -3.757837   -1.179652
     51          1           0       -8.291231   -0.425072    0.108153
     52          1           0       -5.339021   -3.686251   -2.072010
     53          1           0       -3.814928   -4.332911   -1.411171
     54          1           0       -5.261350   -4.250049   -0.372939
 ---------------------------------------------------------------------

 The electronic state is 1-A.
 Alpha  occ. eigenvalues --  -88.88819 -88.88654 -19.17611 -19.17163 -19.12155
 Alpha  occ. eigenvalues --  -19.12137 -19.11382 -19.11372 -14.38340 -14.37810
 Alpha  occ. eigenvalues --  -10.30746 -10.30605 -10.30335 -10.29928 -10.25347
 Alpha  occ. eigenvalues --  -10.24912 -10.24173 -10.23848 -10.23692 -10.22922
 Alpha  occ. eigenvalues --  -10.22584 -10.22359 -10.22246 -10.22189 -10.22085
 Alpha  occ. eigenvalues --  -10.21868 -10.21842 -10.21514 -10.21494 -10.21180
 Alpha  occ. eigenvalues --  -10.20833 -10.20612 -10.20528 -10.20510 -10.19382
 Alpha  occ. eigenvalues --  -10.18960  -7.97370  -7.97225  -5.93679  -5.93542
 Alpha  occ. eigenvalues --   -5.93290  -5.93151  -5.92938  -5.92771  -1.09186
 Alpha  occ. eigenvalues --   -1.08732  -1.08415  -1.07923  -1.06597  -1.05971
 Alpha  occ. eigenvalues --   -0.95980  -0.95357  -0.92075  -0.90673  -0.89078
 Alpha  occ. eigenvalues --   -0.86411  -0.83869  -0.80467  -0.78209  -0.77851
 Alpha  occ. eigenvalues --   -0.76671  -0.75644  -0.74903  -0.73498  -0.72238
 Alpha  occ. eigenvalues --   -0.71765  -0.70592  -0.68871  -0.66926  -0.65571
 Alpha  occ. eigenvalues --   -0.65462  -0.64425  -0.61293  -0.60098  -0.58520
 Alpha  occ. eigenvalues --   -0.57265  -0.56800  -0.56667  -0.55275  -0.54990
 Alpha  occ. eigenvalues --   -0.53327  -0.51455  -0.50347  -0.49811  -0.49510
 Alpha  occ. eigenvalues --   -0.49224  -0.49136  -0.48676  -0.48578  -0.48368
 Alpha  occ. eigenvalues --   -0.48174  -0.46949  -0.46473  -0.46160  -0.45934
 Alpha  occ. eigenvalues --   -0.45705  -0.44725  -0.44285  -0.43964  -0.43297
 Alpha  occ. eigenvalues --   -0.43001  -0.42635  -0.42439  -0.41991  -0.41885
 Alpha  occ. eigenvalues --   -0.41612  -0.41008  -0.40950  -0.40315  -0.39954
 Alpha  occ. eigenvalues --   -0.39327  -0.39178  -0.38959  -0.37851  -0.37380
 Alpha  occ. eigenvalues --   -0.36664  -0.36150  -0.34642  -0.34355  -0.33712
 Alpha  occ. eigenvalues --   -0.33599  -0.31814  -0.30798  -0.30412  -0.29608
 Alpha  occ. eigenvalues --   -0.29150  -0.28599  -0.28506  -0.27800  -0.27201
 Alpha  occ. eigenvalues --   -0.25975  -0.24974  -0.24828  -0.19710
 Alpha virt. eigenvalues --   -0.12808  -0.07764  -0.06267  -0.04273  -0.03626
 Alpha virt. eigenvalues --   -0.00844  -0.00465  -0.00306  -0.00069   0.00378
 Alpha virt. eigenvalues --    0.00853   0.01296   0.01440   0.01797   0.01962

 Mulliken charges:
               1
     1  C    0.254053
     2  C   -0.012562
     3  C    0.225035
     4  C    0.218378
     5  C    0.235363
     6  C    0.087146
     7  C    0.256312
     8  C    0.437068
     9  C    0.262449
    10  C   -0.793301
    11  C    0.191230
    12  C    0.127331
    13  C   -0.475375
    14  C   -0.587749
    15  H    0.157727
    16  H    0.160688
    17  H    0.168200
    18  N   -0.117232
    19  N   -0.140749
    20  O   -0.285757
    21  O   -0.268104
    22  O   -0.279628
    23  O   -0.246089
    24  C   -0.172483
    25  H    0.177098
    26  H    0.168226
    27  H    0.182635
    28  C   -0.198329
    29  H    0.173533
    30  H    0.173108
    31  H    0.181600
    32  C   -0.071753
    33  C   -0.318751
    34  S   -0.673135
    35  C   -0.285338
    36  H    0.150410
    37  C    0.707794
    38  O   -0.128058
    39  C    0.880577
    40  C   -0.243148
    41  C    0.003190
    42  S   -0.243037
    43  H    0.165663
    44  H    0.145203
    45  H    0.165874
    46  C   -0.621633
    47  O   -0.127933
    48  C   -0.286712
    49  H    0.133691
    50  C   -0.240509
    51  H    0.163199
    52  H    0.145309
    53  H    0.171794
    54  H    0.147483
 Sum of Mulliken charges =  -0.00000

 Dipole moment (field-independent basis, Debye):
    X=             -5.5866    Y=             -0.7185    Z=              0.2055  Tot=              5.6363
 Quadrupole moment (field-independent basis, Debye-Ang):
   XX=           -215.5404   YY=           -209.9841   ZZ=           -221.0704
   XY=              4.5739   XZ=              1.1941   YZ=             10.1007

 Normal termination of Gaussian 16 at Sun Nov 29 12:14:14 2020.
