 Gaussian 16, Revision C.01,
 Gaussian 16:  ES64L-G16RevC.01  3-Jul-2019

 -------------------------------------
 # opt=modredundant b3lyp/6-311+g(d,p)
 -------------------------------------

 ------------
 NDI_-170.pdb
 ------------
 Symbolic Z-matrix:
 Charge =  0 Multiplicity = 1

 SCF Done:  E(RB3LYP) =  -2359.29548561     A.U. after   18 cycles
 SCF Done:  E(RB3LYP) =  -2359.32278995     A.U. after   17 cycles
 SCF Done:  E(RB3LYP) =  -2359.33185742     A.U. after   16 cycles
 SCF Done:  E(RB3LYP) =  -2359.33367501     A.U. after   14 cycles
 SCF Done:  E(RB3LYP) =  -2359.33409612     A.U. after   13 cycles
 SCF Done:  E(RB3LYP) =  -2359.33417316     A.U. after   13 cycles
 SCF Done:  E(RB3LYP) =  -2359.33421741     A.U. after   14 cycles
 SCF Done:  E(RB3LYP) =  -2359.33429295     A.U. after   12 cycles
 SCF Done:  E(RB3LYP) =  -2359.33438029     A.U. after   16 cycles
 SCF Done:  E(RB3LYP) =  -2359.33440078     A.U. after   13 cycles
 SCF Done:  E(RB3LYP) =  -2359.33442124     A.U. after   12 cycles
 SCF Done:  E(RB3LYP) =  -2359.33442536     A.U. after   13 cycles
 SCF Done:  E(RB3LYP) =  -2359.33443198     A.U. after   11 cycles
 SCF Done:  E(RB3LYP) =  -2359.33443232     A.U. after   11 cycles
 SCF Done:  E(RB3LYP) =  -2359.33443244     A.U. after    9 cycles
 Optimization completed.
    -- Stationary point found.

                         Standard orientation:
 ---------------------------------------------------------------------
 Center     Atomic      Atomic             Coordinates (Angstroms)
 Number     Number       Type             X           Y           Z
 ---------------------------------------------------------------------
      1          6           0       -3.450788   -2.700077    0.216710
      2          6           0       -2.750561   -1.400195    0.040538
      3          6           0       -3.469066   -0.184595    0.093830
      4          6           0       -4.860713   -0.184643    0.304114
      5          6           0       -5.596658   -1.466133    0.468911
      6          6           0       -1.400290   -1.394810   -0.164959
      7          6           0       -2.748442    1.027670   -0.077597
      8          6           0       -1.331411    1.022554   -0.286310
      9          6           0       -0.613324   -0.207456   -0.331391
     10          6           0       -0.693155    2.328537   -0.547847
     11          6           0       -2.846485    3.541320   -0.244699
     12          6           0       -3.497975    2.231250   -0.037498
     13          6           0       -4.870374    2.214610    0.177820
     14          6           0       -5.559107    1.012801    0.350912
     15          1           0       -6.628914    0.994946    0.513410
     16          1           0       -5.391570    3.163274    0.200320
     17          1           0       -0.920181   -2.359541   -0.143492
     18          7           0       -1.480325    3.491520   -0.517768
     19          7           0       -4.835118   -2.647237    0.403594
     20          8           0       -2.869268   -3.770738    0.210023
     21          8           0       -6.798778   -1.503630    0.651225
     22          8           0       -3.454387    4.597457   -0.196021
     23          8           0        0.495335    2.457694   -0.798721
     24          6           0       -0.774323    4.753608   -0.780275
     25          1           0        0.012033    4.899673   -0.039391
     26          1           0       -0.313183    4.719585   -1.767258
     27          1           0       -1.503091    5.556023   -0.724966
     28          6           0       -5.521258   -3.936369    0.569789
     29          1           0       -5.338550   -4.563669   -0.302733
     30          1           0       -5.134554   -4.450097    1.450488
     31          1           0       -6.582334   -3.737728    0.681869
     32          6           0        0.825850   -0.470921   -0.439171
     33          6           0        1.348957   -1.747516   -0.673775
     34         16           0        2.140498    0.614448   -0.010454
     35          6           0        2.731808   -1.848182   -0.501784
     36          1           0        0.751350   -2.585408   -0.993804
     37          6           0        3.334797   -0.656904   -0.088657
     38          8           0        3.497276   -2.957874   -0.681112
     39          6           0        4.726879   -0.437592    0.180772
     40          6           0        2.876158   -4.120054   -1.222677
     41          6           0        5.340964    0.746484    0.583725
     42         16           0        5.943557   -1.704395    0.041810
     43          1           0        3.667687   -4.859474   -1.329697
     44          1           0        2.106433   -4.507963   -0.547583
     45          1           0        2.436610   -3.909518   -2.203015
     46          6           0        6.745604    0.638959    0.772444
     47          8           0        4.589511    1.860956    0.751004
     48          6           0        7.199974   -0.625518    0.517049
     49          1           0        7.386630    1.451471    1.081414
     50          6           0        5.234079    3.052596    1.192779
     51          1           0        8.215782   -0.984513    0.582589
     52          1           0        5.988372    3.382329    0.471393
     53          1           0        4.450031    3.803662    1.265750
     54          1           0        5.696320    2.908649    2.174510
 ---------------------------------------------------------------------

 The electronic state is 1-A.
 Alpha  occ. eigenvalues --  -88.88693 -88.88267 -19.17421 -19.17158 -19.12229
 Alpha  occ. eigenvalues --  -19.12200 -19.11502 -19.11290 -14.38398 -14.37798
 Alpha  occ. eigenvalues --  -10.30782 -10.30683 -10.30135 -10.29863 -10.25248
 Alpha  occ. eigenvalues --  -10.24709 -10.24053 -10.24020 -10.23898 -10.22597
 Alpha  occ. eigenvalues --  -10.22525 -10.22390 -10.22140 -10.22014 -10.21996
 Alpha  occ. eigenvalues --  -10.21810 -10.21795 -10.21483 -10.21423 -10.21143
 Alpha  occ. eigenvalues --  -10.20884 -10.20558 -10.20494 -10.20427 -10.19313
 Alpha  occ. eigenvalues --  -10.19274  -7.97245  -7.96728  -5.93554  -5.93165
 Alpha  occ. eigenvalues --   -5.93050  -5.92815  -5.92634  -5.92284  -1.09059
 Alpha  occ. eigenvalues --   -1.08721  -1.08465  -1.07960  -1.06649  -1.05965
 Alpha  occ. eigenvalues --   -0.96026  -0.95396  -0.92018  -0.90458  -0.88906
 Alpha  occ. eigenvalues --   -0.86368  -0.83845  -0.80470  -0.78055  -0.77702
 Alpha  occ. eigenvalues --   -0.76659  -0.75606  -0.74920  -0.73435  -0.72287
 Alpha  occ. eigenvalues --   -0.71431  -0.70720  -0.68863  -0.66855  -0.65665
 Alpha  occ. eigenvalues --   -0.65315  -0.64669  -0.60981  -0.60101  -0.58547
 Alpha  occ. eigenvalues --   -0.57352  -0.56758  -0.56479  -0.55357  -0.54685
 Alpha  occ. eigenvalues --   -0.53601  -0.51374  -0.50135  -0.49899  -0.49341
 Alpha  occ. eigenvalues --   -0.49227  -0.49030  -0.48708  -0.48679  -0.48295
 Alpha  occ. eigenvalues --   -0.48156  -0.47165  -0.46544  -0.46092  -0.45931
 Alpha  occ. eigenvalues --   -0.45589  -0.44925  -0.44285  -0.44024  -0.43448
 Alpha  occ. eigenvalues --   -0.43070  -0.42477  -0.42255  -0.41928  -0.41650
 Alpha  occ. eigenvalues --   -0.41589  -0.41206  -0.40975  -0.40409  -0.39720
 Alpha  occ. eigenvalues --   -0.39460  -0.39102  -0.38908  -0.37509  -0.37108
 Alpha  occ. eigenvalues --   -0.36467  -0.36185  -0.34520  -0.34224  -0.33682
 Alpha  occ. eigenvalues --   -0.33228  -0.31738  -0.30672  -0.30332  -0.29598
 Alpha  occ. eigenvalues --   -0.29191  -0.28599  -0.28512  -0.27704  -0.27233
 Alpha  occ. eigenvalues --   -0.25912  -0.24971  -0.24507  -0.19660
 Alpha virt. eigenvalues --   -0.12690  -0.07730  -0.06222  -0.04242  -0.03704
 Alpha virt. eigenvalues --   -0.00839  -0.00479  -0.00348  -0.00046   0.00406
 Alpha virt. eigenvalues --    0.00967   0.01113   0.01504   0.01954   0.02000

 Mulliken charges:
               1
     1  C    0.309468
     2  C   -0.045387
     3  C    0.180337
     4  C    0.138134
     5  C    0.279771
     6  C   -0.005482
     7  C    0.119090
     8  C    0.167745
     9  C    0.440117
    10  C   -0.124881
    11  C    0.237608
    12  C    0.098268
    13  C   -0.481819
    14  C   -0.609058
    15  H    0.157258
    16  H    0.160618
    17  H    0.158800
    18  N   -0.162793
    19  N   -0.143979
    20  O   -0.287927
    21  O   -0.266259
    22  O   -0.280172
    23  O   -0.219656
    24  C   -0.190882
    25  H    0.174143
    26  H    0.175760
    27  H    0.183388
    28  C   -0.197548
    29  H    0.172707
    30  H    0.173688
    31  H    0.182818
    32  C   -0.190403
    33  C   -0.410491
    34  S   -0.570372
    35  C   -0.316254
    36  H    0.131581
    37  C    0.653706
    38  O   -0.134980
    39  C    0.820850
    40  C   -0.227483
    41  C   -0.044128
    42  S   -0.251914
    43  H    0.168142
    44  H    0.149502
    45  H    0.150489
    46  C   -0.532453
    47  O   -0.113712
    48  C   -0.290320
    49  H    0.132779
    50  C   -0.243704
    51  H    0.162655
    52  H    0.146476
    53  H    0.170433
    54  H    0.145724
 Sum of Mulliken charges =  -0.00000

 Dipole moment (field-independent basis, Debye):
    X=              5.4430    Y=             -0.7914    Z=              0.1234  Tot=              5.5016
 Quadrupole moment (field-independent basis, Debye-Ang):
   XX=           -211.0546   YY=           -214.8170   ZZ=           -220.7172
   XY=             12.8917   XZ=              7.4346   YZ=              8.8634

 Normal termination of Gaussian 16 at Sun Nov 29 13:57:16 2020.
