 Gaussian 16, Revision C.01,
 Gaussian 16:  ES64L-G16RevC.01  3-Jul-2019

 -------------------------------------
 # opt=modredundant b3lyp/6-311+g(d,p)
 -------------------------------------

 ------------
 NDI_-145.pdb
 ------------
 Symbolic Z-matrix:
 Charge =  0 Multiplicity = 1

 SCF Done:  E(RB3LYP) =  -2359.31875689     A.U. after   17 cycles
 SCF Done:  E(RB3LYP) =  -2359.32337252     A.U. after   17 cycles
 SCF Done:  E(RB3LYP) =  -2359.33091652     A.U. after   14 cycles
 SCF Done:  E(RB3LYP) =  -2359.33467704     A.U. after   14 cycles
 SCF Done:  E(RB3LYP) =  -2359.33504312     A.U. after   13 cycles
 SCF Done:  E(RB3LYP) =  -2359.33522579     A.U. after   12 cycles
 SCF Done:  E(RB3LYP) =  -2359.33533736     A.U. after   13 cycles
 SCF Done:  E(RB3LYP) =  -2359.33545529     A.U. after   14 cycles
 SCF Done:  E(RB3LYP) =  -2359.33556800     A.U. after   12 cycles
 SCF Done:  E(RB3LYP) =  -2359.33577867     A.U. after   13 cycles
 SCF Done:  E(RB3LYP) =  -2359.33576517     A.U. after   14 cycles
 SCF Done:  E(RB3LYP) =  -2359.33582409     A.U. after   13 cycles
 SCF Done:  E(RB3LYP) =  -2359.33580577     A.U. after   12 cycles
 SCF Done:  E(RB3LYP) =  -2359.33583603     A.U. after   13 cycles
 SCF Done:  E(RB3LYP) =  -2359.33583304     A.U. after   12 cycles
 SCF Done:  E(RB3LYP) =  -2359.33584038     A.U. after   12 cycles
 SCF Done:  E(RB3LYP) =  -2359.33583194     A.U. after   12 cycles
 SCF Done:  E(RB3LYP) =  -2359.33584095     A.U. after   12 cycles
 SCF Done:  E(RB3LYP) =  -2359.33584102     A.U. after    9 cycles
 SCF Done:  E(RB3LYP) =  -2359.33584103     A.U. after    9 cycles
 Optimization completed.
    -- Stationary point found.

                         Standard orientation:
 ---------------------------------------------------------------------
 Center     Atomic      Atomic             Coordinates (Angstroms)
 Number     Number       Type             X           Y           Z
 ---------------------------------------------------------------------
      1          6           0       -3.383265   -2.741012    0.404726
      2          6           0       -2.695402   -1.452667    0.127679
      3          6           0       -3.414114   -0.235591    0.162182
      4          6           0       -4.793668   -0.224880    0.454002
      5          6           0       -5.512900   -1.495696    0.737460
      6          6           0       -1.353656   -1.450429   -0.157157
      7          6           0       -2.726468    0.973533   -0.133929
      8          6           0       -1.329146    0.964674   -0.420482
      9          6           0       -0.618155   -0.254649   -0.401582
     10          6           0       -0.715790    2.227883   -0.911936
     11          6           0       -2.846426    3.462738   -0.508525
     12          6           0       -3.479729    2.173934   -0.143357
     13          6           0       -4.833043    2.165448    0.159843
     14          6           0       -5.494685    0.970295    0.462305
     15          1           0       -6.552783    0.957855    0.690008
     16          1           0       -5.366202    3.107641    0.144768
     17          1           0       -0.829157   -2.396195   -0.134334
     18          7           0       -1.512437    3.388705   -0.911882
     19          7           0       -4.754569   -2.677800    0.676272
     20          8           0       -2.801481   -3.810546    0.414768
     21          8           0       -6.699328   -1.521731    1.004930
     22          8           0       -3.452741    4.519862   -0.484526
     23          8           0        0.431808    2.313197   -1.307195
     24          6           0       -0.851598    4.618772   -1.371260
     25          1           0        0.007124    4.837414   -0.735995
     26          1           0       -0.496441    4.485850   -2.393078
     27          1           0       -1.577515    5.423960   -1.319173
     28          6           0       -5.423984   -3.957502    0.950354
     29          1           0       -5.294005   -4.627691    0.100647
     30          1           0       -4.980416   -4.426041    1.829451
     31          1           0       -6.476612   -3.754261    1.119323
     32          6           0        0.829333   -0.448536   -0.525690
     33          6           0        1.431113   -1.519687   -1.163128
     34         16           0        2.008416    0.478396    0.361056
     35          6           0        2.825408   -1.571166   -0.970710
     36          1           0        0.878961   -2.223945   -1.768606
     37          6           0        3.319555   -0.569950   -0.134982
     38          8           0        3.684449   -2.489371   -1.490299
     39          6           0        4.678865   -0.370702    0.285765
     40          6           0        3.170055   -3.428906   -2.428676
     41          6           0        5.172881    0.623141    1.124254
     42         16           0        6.003163   -1.411526   -0.225577
     43          1           0        4.021205   -4.025762   -2.751419
     44          1           0        2.424005   -4.082933   -1.965291
     45          1           0        2.730729   -2.920494   -3.293046
     46          6           0        6.575600    0.554283    1.346488
     47          8           0        4.318974    1.545342    1.638624
     48          6           0        7.147600   -0.494195    0.680852
     49          1           0        7.132815    1.241666    1.965923
     50          6           0        4.845351    2.532200    2.520409
     51          1           0        8.188261   -0.780033    0.672487
     52          1           0        5.589468    3.155976    2.014871
     53          1           0        3.998773    3.148470    2.817350
     54          1           0        5.289722    2.070258    3.407866
 ---------------------------------------------------------------------

 The electronic state is 1-A.
 Alpha  occ. eigenvalues --  -88.88358 -88.88146 -19.17143 -19.16937 -19.12364
 Alpha  occ. eigenvalues --  -19.12353 -19.11647 -19.11506 -14.38541 -14.37934
 Alpha  occ. eigenvalues --  -10.30964 -10.30826 -10.30329 -10.30235 -10.24780
 Alpha  occ. eigenvalues --  -10.24549 -10.23909 -10.23765 -10.23640 -10.22763
 Alpha  occ. eigenvalues --  -10.22432 -10.22401 -10.22225 -10.22161 -10.22139
 Alpha  occ. eigenvalues --  -10.22057 -10.21893 -10.21711 -10.21405 -10.20987
 Alpha  occ. eigenvalues --  -10.20981 -10.20980 -10.20928 -10.20511 -10.19144
 Alpha  occ. eigenvalues --  -10.18945  -7.96911  -7.96691  -5.93221  -5.93014
 Alpha  occ. eigenvalues --   -5.92832  -5.92615  -5.92479  -5.92233  -1.08714
 Alpha  occ. eigenvalues --   -1.08616  -1.08488  -1.08062  -1.06806  -1.06180
 Alpha  occ. eigenvalues --   -0.96175  -0.95534  -0.92339  -0.90339  -0.88788
 Alpha  occ. eigenvalues --   -0.86590  -0.84132  -0.80471  -0.78314  -0.77605
 Alpha  occ. eigenvalues --   -0.76489  -0.75370  -0.75043  -0.73271  -0.72403
 Alpha  occ. eigenvalues --   -0.71471  -0.70538  -0.68854  -0.67000  -0.65781
 Alpha  occ. eigenvalues --   -0.65429  -0.64756  -0.60940  -0.59936  -0.58575
 Alpha  occ. eigenvalues --   -0.57360  -0.56715  -0.56355  -0.55058  -0.54821
 Alpha  occ. eigenvalues --   -0.53704  -0.51567  -0.50171  -0.49917  -0.49588
 Alpha  occ. eigenvalues --   -0.49352  -0.48815  -0.48644  -0.48513  -0.48399
 Alpha  occ. eigenvalues --   -0.48138  -0.46990  -0.46545  -0.46244  -0.45877
 Alpha  occ. eigenvalues --   -0.45567  -0.44880  -0.44554  -0.44231  -0.43759
 Alpha  occ. eigenvalues --   -0.42824  -0.42439  -0.42212  -0.41978  -0.41774
 Alpha  occ. eigenvalues --   -0.41652  -0.41214  -0.41088  -0.40485  -0.39818
 Alpha  occ. eigenvalues --   -0.39395  -0.39070  -0.38840  -0.37695  -0.37325
 Alpha  occ. eigenvalues --   -0.36458  -0.35931  -0.34300  -0.33981  -0.33643
 Alpha  occ. eigenvalues --   -0.33516  -0.31970  -0.30873  -0.30118  -0.29760
 Alpha  occ. eigenvalues --   -0.29262  -0.28757  -0.28589  -0.27907  -0.27428
 Alpha  occ. eigenvalues --   -0.26035  -0.24871  -0.24244  -0.19356
 Alpha virt. eigenvalues --   -0.12987  -0.07270  -0.06315  -0.04572  -0.03802
 Alpha virt. eigenvalues --   -0.00834  -0.00467  -0.00330  -0.00028   0.00401
 Alpha virt. eigenvalues --    0.00767   0.01084   0.01440   0.01611   0.01991

 Mulliken charges:
               1
     1  C    0.296861
     2  C    0.012398
     3  C    0.194098
     4  C    0.250823
     5  C    0.201521
     6  C   -0.104139
     7  C    0.187402
     8  C    0.052296
     9  C    0.242300
    10  C   -0.320040
    11  C    0.280104
    12  C    0.102157
    13  C   -0.469099
    14  C   -0.613886
    15  H    0.159036
    16  H    0.161103
    17  H    0.165897
    18  N   -0.112767
    19  N   -0.141762
    20  O   -0.280342
    21  O   -0.270105
    22  O   -0.280413
    23  O   -0.217145
    24  C   -0.179071
    25  H    0.175861
    26  H    0.177211
    27  H    0.181930
    28  C   -0.195277
    29  H    0.172706
    30  H    0.175012
    31  H    0.182130
    32  C    0.089774
    33  C   -0.706532
    34  S   -0.589964
    35  C   -0.051542
    36  H    0.136637
    37  C    0.727417
    38  O   -0.138808
    39  C    0.869709
    40  C   -0.225874
    41  C    0.006846
    42  S   -0.257753
    43  H    0.166576
    44  H    0.148871
    45  H    0.150240
    46  C   -0.612891
    47  O   -0.133412
    48  C   -0.276156
    49  H    0.131713
    50  C   -0.240497
    51  H    0.160891
    52  H    0.145579
    53  H    0.166561
    54  H    0.145813
 Sum of Mulliken charges =  -0.00000

 Dipole moment (field-independent basis, Debye):
    X=              4.1797    Y=             -0.5750    Z=              0.2267  Tot=              4.2251
 Quadrupole moment (field-independent basis, Debye-Ang):
   XX=           -214.4686   YY=           -221.3813   ZZ=           -212.3927
   XY=              9.6879   XZ=             10.8207   YZ=             14.9030

 Normal termination of Gaussian 16 at Sun Nov 29 15:24:31 2020.
