 Gaussian 16, Revision C.01,
 Gaussian 16:  ES64L-G16RevC.01  3-Jul-2019

 -------------------------------------
 # opt=modredundant b3lyp/6-311+g(d,p)
 -------------------------------------

 ----------
 NDI_65.pdb
 ----------
 Symbolic Z-matrix:
 Charge =  0 Multiplicity = 1

 SCF Done:  E(RB3LYP) =  -2359.33098586     A.U. after   18 cycles
 SCF Done:  E(RB3LYP) =  -2359.33486137     A.U. after   16 cycles
 SCF Done:  E(RB3LYP) =  -2359.33585331     A.U. after   16 cycles
 SCF Done:  E(RB3LYP) =  -2359.33616647     A.U. after   13 cycles
 SCF Done:  E(RB3LYP) =  -2359.33620304     A.U. after   12 cycles
 SCF Done:  E(RB3LYP) =  -2359.33624984     A.U. after   12 cycles
 SCF Done:  E(RB3LYP) =  -2359.33625773     A.U. after   11 cycles
 SCF Done:  E(RB3LYP) =  -2359.33632199     A.U. after   12 cycles
 SCF Done:  E(RB3LYP) =  -2359.33632297     A.U. after   10 cycles
 SCF Done:  E(RB3LYP) =  -2359.33632352     A.U. after   10 cycles
 SCF Done:  E(RB3LYP) =  -2359.33632374     A.U. after   11 cycles
 SCF Done:  E(RB3LYP) =  -2359.33632379     A.U. after    9 cycles
 SCF Done:  E(RB3LYP) =  -2359.33632381     A.U. after    9 cycles
 Optimization completed.
    -- Stationary point found.

                         Standard orientation:
 ---------------------------------------------------------------------
 Center     Atomic      Atomic             Coordinates (Angstroms)
 Number     Number       Type             X           Y           Z
 ---------------------------------------------------------------------
      1          6           0       -2.746565   -2.908124    0.646035
      2          6           0       -2.348744   -1.498545    0.387976
      3          6           0       -3.327269   -0.522626    0.093742
      4          6           0       -4.693273   -0.872093    0.028599
      5          6           0       -5.125403   -2.273954    0.278339
      6          6           0       -1.021124   -1.149022    0.434969
      7          6           0       -2.912492    0.815308   -0.153063
      8          6           0       -1.533241    1.168486   -0.086802
      9          6           0       -0.576209    0.187926    0.237542
     10          6           0       -1.150808    2.573577   -0.405989
     11          6           0       -3.544699    3.170623   -0.791720
     12          6           0       -3.909132    1.767621   -0.481888
     13          6           0       -5.245342    1.404046   -0.538390
     14          6           0       -5.643124    0.086570   -0.280540
     15          1           0       -6.685282   -0.202391   -0.326762
     16          1           0       -5.972668    2.164306   -0.793706
     17          1           0       -0.295765   -1.916624    0.671630
     18          7           0       -2.180265    3.465798   -0.762182
     19          7           0       -4.112628   -3.204437    0.562737
     20          8           0       -1.943619   -3.778671    0.924636
     21          8           0       -6.295067   -2.605864    0.237987
     22          8           0       -4.378245    4.016121   -1.065519
     23          8           0       -0.006749    2.986099   -0.390596
     24          6           0       -1.755819    4.835121   -1.088417
     25          1           0       -1.248409    5.280621   -0.232382
     26          1           0       -1.058622    4.813213   -1.925898
     27          1           0       -2.643236    5.405432   -1.343437
     28          6           0       -4.492126   -4.601532    0.818461
     29          1           0       -3.976499   -5.255440    0.115204
     30          1           0       -4.199408   -4.884517    1.830001
     31          1           0       -5.567634   -4.682887    0.697825
     32          6           0        0.874374    0.404292    0.351925
     33          6           0        1.568189    1.173945    1.253643
     34         16           0        1.958350   -0.625119   -0.553808
     35          6           0        2.964678    0.965863    1.200222
     36          1           0        1.084073    1.873609    1.917459
     37          6           0        3.370225    0.023983    0.259311
     38          8           0        3.905107    1.609101    1.944208
     39          6           0        4.712181   -0.365599   -0.080608
     40          6           0        3.457764    2.487416    2.971839
     41          6           0        5.110352   -1.336834   -0.991308
     42         16           0        6.136211    0.371354    0.643636
     43          1           0        4.357375    2.861555    3.457376
     44          1           0        2.892991    3.327457    2.554851
     45          1           0        2.842384    1.954724    3.704338
     46          6           0        6.519995   -1.487279   -1.105175
     47          8           0        4.165205   -2.040615   -1.670637
     48          6           0        7.193972   -0.629150   -0.281369
     49          1           0        7.010500   -2.193186   -1.759328
     50          6           0        4.601409   -3.004533   -2.623410
     51          1           0        8.262077   -0.533179   -0.160828
     52          1           0        5.186961   -3.796067   -2.144553
     53          1           0        3.696469   -3.433024   -3.050472
     54          1           0        5.192278   -2.535185   -3.416636
 ---------------------------------------------------------------------

 The electronic state is 1-A.
 Alpha  occ. eigenvalues --  -88.88175 -88.88030 -19.16828 -19.16582 -19.12519
 Alpha  occ. eigenvalues --  -19.12462 -19.11986 -19.11910 -14.38671 -14.38266
 Alpha  occ. eigenvalues --  -10.31130 -10.30939 -10.30735 -10.30580 -10.24366
 Alpha  occ. eigenvalues --  -10.24240 -10.23761 -10.23675 -10.23452 -10.23051
 Alpha  occ. eigenvalues --  -10.22863 -10.22742 -10.22424 -10.22399 -10.22246
 Alpha  occ. eigenvalues --  -10.21774 -10.21749 -10.21492 -10.21387 -10.21307
 Alpha  occ. eigenvalues --  -10.21254 -10.21081 -10.20780 -10.20602 -10.18675
 Alpha  occ. eigenvalues --  -10.18635  -7.96730  -7.96583  -5.93050  -5.92893
 Alpha  occ. eigenvalues --   -5.92660  -5.92504  -5.92275  -5.92151  -1.08762
 Alpha  occ. eigenvalues --   -1.08410  -1.08361  -1.08132  -1.06954  -1.06536
 Alpha  occ. eigenvalues --   -0.96325  -0.95844  -0.92592  -0.90120  -0.88573
 Alpha  occ. eigenvalues --   -0.86707  -0.84399  -0.80410  -0.78561  -0.77497
 Alpha  occ. eigenvalues --   -0.76232  -0.75264  -0.75051  -0.72986  -0.72496
 Alpha  occ. eigenvalues --   -0.71815  -0.70159  -0.68770  -0.67226  -0.65993
 Alpha  occ. eigenvalues --   -0.65643  -0.64762  -0.60965  -0.59713  -0.58594
 Alpha  occ. eigenvalues --   -0.57471  -0.56670  -0.56091  -0.55425  -0.54547
 Alpha  occ. eigenvalues --   -0.53588  -0.51778  -0.50295  -0.49893  -0.49836
 Alpha  occ. eigenvalues --   -0.49456  -0.48703  -0.48611  -0.48519  -0.48192
 Alpha  occ. eigenvalues --   -0.47963  -0.47184  -0.46661  -0.46363  -0.45784
 Alpha  occ. eigenvalues --   -0.45369  -0.45031  -0.44659  -0.44391  -0.43845
 Alpha  occ. eigenvalues --   -0.42709  -0.42578  -0.42278  -0.42081  -0.41867
 Alpha  occ. eigenvalues --   -0.41362  -0.41332  -0.41239  -0.40613  -0.39808
 Alpha  occ. eigenvalues --   -0.39680  -0.39119  -0.38721  -0.37647  -0.37314
 Alpha  occ. eigenvalues --   -0.36165  -0.35611  -0.34095  -0.33759  -0.33589
 Alpha  occ. eigenvalues --   -0.33262  -0.32291  -0.31111  -0.30348  -0.29830
 Alpha  occ. eigenvalues --   -0.29325  -0.29035  -0.28734  -0.28234  -0.27282
 Alpha  occ. eigenvalues --   -0.26257  -0.24467  -0.24384  -0.19130
 Alpha virt. eigenvalues --   -0.13183  -0.07079  -0.06325  -0.04814  -0.04120
 Alpha virt. eigenvalues --   -0.00928  -0.00306  -0.00259   0.00088   0.00610
 Alpha virt. eigenvalues --    0.00671   0.01011   0.01232   0.01375   0.01813

 Mulliken charges:
               1
     1  C    0.392462
     2  C   -0.021249
     3  C    0.082014
     4  C    0.256638
     5  C    0.213945
     6  C   -0.654499
     7  C    0.217690
     8  C    0.111425
     9  C    0.513716
    10  C   -0.287257
    11  C    0.384553
    12  C    0.095987
    13  C   -0.510279
    14  C   -0.669454
    15  H    0.160224
    16  H    0.162122
    17  H    0.184830
    18  N   -0.162082
    19  N   -0.144558
    20  O   -0.274164
    21  O   -0.269351
    22  O   -0.276570
    23  O   -0.158484
    24  C   -0.200736
    25  H    0.173022
    26  H    0.177852
    27  H    0.183970
    28  C   -0.198150
    29  H    0.174384
    30  H    0.175228
    31  H    0.182871
    32  C    0.097421
    33  C   -0.283192
    34  S   -0.454674
    35  C   -0.326540
    36  H    0.129547
    37  C    0.526772
    38  O   -0.121536
    39  C    0.881189
    40  C   -0.229575
    41  C   -0.065673
    42  S   -0.235290
    43  H    0.165454
    44  H    0.152382
    45  H    0.146365
    46  C   -0.476945
    47  O   -0.135258
    48  C   -0.290968
    49  H    0.130568
    50  C   -0.241101
    51  H    0.159665
    52  H    0.143866
    53  H    0.165437
    54  H    0.145984
 Sum of Mulliken charges =  -0.00000

 Dipole moment (field-independent basis, Debye):
    X=              3.1858    Y=             -0.5213    Z=              0.1811  Tot=              3.2332
 Quadrupole moment (field-independent basis, Debye-Ang):
   XX=           -219.9698   YY=           -220.5103   ZZ=           -209.2507
   XY=             -3.5939   XZ=             -6.7956   YZ=             17.2712

 Normal termination of Gaussian 16 at Sun Nov 29 12:49:11 2020.
