 Gaussian 16, Revision C.01,
 Gaussian 16:  ES64L-G16RevC.01  3-Jul-2019

 -------------------------------------
 # opt=modredundant b3lyp/6-311+g(d,p)
 -------------------------------------

 ----------
 NDI_95.pdb
 ----------
 Symbolic Z-matrix:
 Charge =  0 Multiplicity = 1

 SCF Done:  E(RB3LYP) =  -2359.33012512     A.U. after   18 cycles
 SCF Done:  E(RB3LYP) =  -2359.33313628     A.U. after   15 cycles
 SCF Done:  E(RB3LYP) =  -2359.33392140     A.U. after   15 cycles
 SCF Done:  E(RB3LYP) =  -2359.33406432     A.U. after   15 cycles
 SCF Done:  E(RB3LYP) =  -2359.33416617     A.U. after   13 cycles
 SCF Done:  E(RB3LYP) =  -2359.33418249     A.U. after   12 cycles
 SCF Done:  E(RB3LYP) =  -2359.33419588     A.U. after   11 cycles
 SCF Done:  E(RB3LYP) =  -2359.33419785     A.U. after   11 cycles
 SCF Done:  E(RB3LYP) =  -2359.33419932     A.U. after   10 cycles
 SCF Done:  E(RB3LYP) =  -2359.33419988     A.U. after   10 cycles
 SCF Done:  E(RB3LYP) =  -2359.33420004     A.U. after    9 cycles
 SCF Done:  E(RB3LYP) =  -2359.33420007     A.U. after    9 cycles
 Optimization completed.
    -- Stationary point found.

                         Standard orientation:
 ---------------------------------------------------------------------
 Center     Atomic      Atomic             Coordinates (Angstroms)
 Number     Number       Type             X           Y           Z
 ---------------------------------------------------------------------
      1          6           0        3.271176   -2.845782   -0.116389
      2          6           0        2.634069   -1.501978   -0.139586
      3          6           0        3.413755   -0.341099    0.051604
      4          6           0        4.806430   -0.436614    0.274875
      5          6           0        5.473327   -1.767035    0.315473
      6          6           0        1.276175   -1.391278   -0.341803
      7          6           0        2.781500    0.931563    0.016361
      8          6           0        1.378971    1.028157   -0.203782
      9          6           0        0.620612   -0.134915   -0.375447
     10          6           0        0.757607    2.387267   -0.264767
     11          6           0        2.975779    3.441519    0.181563
     12          6           0        3.581232    2.084920    0.208246
     13          6           0        4.942931    1.968328    0.425696
     14          6           0        5.559067    0.708245    0.459851
     15          1           0        6.623960    0.613317    0.630537
     16          1           0        5.520642    2.872605    0.569667
     17          1           0        0.691510   -2.292384   -0.476920
     18          7           0        1.600217    3.494871   -0.054466
     19          7           0        4.651571   -2.888247    0.119462
     20          8           0        2.644807   -3.872939   -0.293741
     21          8           0        6.668634   -1.883234    0.507653
     22          8           0        3.637275    4.449221    0.351731
     23          8           0       -0.419968    2.577741   -0.485603
     24          6           0        0.949143    4.812700   -0.107461
     25          1           0        0.489483    4.957762   -1.085166
     26          1           0        0.167668    4.867177    0.650449
     27          1           0        1.708998    5.566300    0.072692
     28          6           0        5.265578   -4.224141    0.146873
     29          1           0        4.787844   -4.830866    0.916046
     30          1           0        5.124370   -4.714758   -0.816523
     31          1           0        6.322838   -4.101497    0.359034
     32          6           0       -0.845331   -0.165334   -0.594487
     33          6           0       -1.510659   -0.222222   -1.787378
     34         16           0       -1.937623   -0.241388    0.755821
     35          6           0       -2.921101   -0.305526   -1.620825
     36          1           0       -1.009390   -0.181697   -2.743667
     37          6           0       -3.340742   -0.331300   -0.301213
     38          8           0       -3.846508   -0.347323   -2.620435
     39          6           0       -4.689175   -0.422475    0.203590
     40          6           0       -3.379746   -0.447313   -3.960252
     41          6           0       -5.102211   -0.464559    1.526664
     42         16           0       -6.097293   -0.496661   -0.847080
     43          1           0       -4.270223   -0.510566   -4.583521
     44          1           0       -2.801144    0.437678   -4.245633
     45          1           0       -2.771768   -1.347243   -4.101530
     46          6           0       -6.512608   -0.553913    1.697151
     47          8           0       -4.169427   -0.422940    2.520677
     48          6           0       -7.172573   -0.579676    0.500808
     49          1           0       -7.012786   -0.597046    2.653722
     50          6           0       -4.627393   -0.433034    3.866976
     51          1           0       -8.236706   -0.643527    0.333821
     52          1           0       -5.174377   -1.354632    4.092668
     53          1           0       -3.734306   -0.382914    4.487770
     54          1           0       -5.263841    0.433484    4.075423
 ---------------------------------------------------------------------

 The electronic state is 1-A.
 Alpha  occ. eigenvalues --  -88.87582 -88.87296 -19.16063 -19.16055 -19.12932
 Alpha  occ. eigenvalues --  -19.12868 -19.12590 -19.12517 -14.39060 -14.38738
 Alpha  occ. eigenvalues --  -10.31559 -10.31344 -10.31223 -10.31197 -10.23941
 Alpha  occ. eigenvalues --  -10.23590 -10.23570 -10.23542 -10.23448 -10.23356
 Alpha  occ. eigenvalues --  -10.23160 -10.23147 -10.22999 -10.22949 -10.22911
 Alpha  occ. eigenvalues --  -10.21997 -10.21904 -10.21893 -10.21383 -10.21312
 Alpha  occ. eigenvalues --  -10.21095 -10.20747 -10.20612 -10.19764 -10.18195
 Alpha  occ. eigenvalues --  -10.17928  -7.96123  -7.95851  -5.92450  -5.92161
 Alpha  occ. eigenvalues --   -5.92058  -5.91773  -5.91662  -5.91420  -1.09170
 Alpha  occ. eigenvalues --   -1.08973  -1.07606  -1.07529  -1.07373  -1.07146
 Alpha  occ. eigenvalues --   -0.96736  -0.96366  -0.93141  -0.89627  -0.88160
 Alpha  occ. eigenvalues --   -0.86842  -0.84925  -0.80509  -0.79063  -0.77077
 Alpha  occ. eigenvalues --   -0.75786  -0.75604  -0.74388  -0.73028  -0.72512
 Alpha  occ. eigenvalues --   -0.71760  -0.69777  -0.68605  -0.67584  -0.66452
 Alpha  occ. eigenvalues --   -0.65924  -0.65072  -0.60822  -0.59437  -0.58557
 Alpha  occ. eigenvalues --   -0.57865  -0.56537  -0.55647  -0.55431  -0.54017
 Alpha  occ. eigenvalues --   -0.53916  -0.52151  -0.50663  -0.50287  -0.50131
 Alpha  occ. eigenvalues --   -0.49098  -0.49064  -0.48889  -0.48042  -0.47805
 Alpha  occ. eigenvalues --   -0.47649  -0.47467  -0.47042  -0.46659  -0.45560
 Alpha  occ. eigenvalues --   -0.45347  -0.45121  -0.44892  -0.44616  -0.44111
 Alpha  occ. eigenvalues --   -0.43104  -0.42873  -0.42506  -0.42023  -0.41822
 Alpha  occ. eigenvalues --   -0.41570  -0.41175  -0.41000  -0.40634  -0.40290
 Alpha  occ. eigenvalues --   -0.40030  -0.38861  -0.38080  -0.37863  -0.36855
 Alpha  occ. eigenvalues --   -0.35828  -0.35466  -0.33611  -0.33190  -0.33041
 Alpha  occ. eigenvalues --   -0.32779  -0.32719  -0.31455  -0.30561  -0.30074
 Alpha  occ. eigenvalues --   -0.29564  -0.29373  -0.28835  -0.28813  -0.27152
 Alpha  occ. eigenvalues --   -0.26850  -0.24090  -0.23723  -0.18543
 Alpha virt. eigenvalues --   -0.13605  -0.07318  -0.06189  -0.05133  -0.04345
 Alpha virt. eigenvalues --   -0.01148  -0.00027   0.00016   0.00266   0.00506
 Alpha virt. eigenvalues --    0.00625   0.00764   0.01048   0.01178   0.01705

 Mulliken charges:
               1
     1  C    0.394829
     2  C    0.052358
     3  C    0.217574
     4  C    0.204777
     5  C    0.273087
     6  C   -0.655794
     7  C    0.188226
     8  C   -0.047133
     9  C    0.501297
    10  C   -0.356203
    11  C    0.213759
    12  C    0.213498
    13  C   -0.529968
    14  C   -0.625192
    15  H    0.162337
    16  H    0.163392
    17  H    0.165100
    18  N   -0.163455
    19  N   -0.147487
    20  O   -0.266692
    21  O   -0.268911
    22  O   -0.268344
    23  O   -0.100488
    24  C   -0.213995
    25  H    0.176339
    26  H    0.179511
    27  H    0.184017
    28  C   -0.201015
    29  H    0.175955
    30  H    0.175816
    31  H    0.182859
    32  C    0.242119
    33  C   -0.471470
    34  S   -0.103290
    35  C   -0.103037
    36  H    0.110370
    37  C    0.209248
    38  O   -0.137677
    39  C    0.796939
    40  C   -0.225102
    41  C    0.052973
    42  S   -0.287331
    43  H    0.164546
    44  H    0.145188
    45  H    0.147439
    46  C   -0.537497
    47  O   -0.151695
    48  C   -0.328331
    49  H    0.127970
    50  C   -0.234980
    51  H    0.156031
    52  H    0.141698
    53  H    0.161885
    54  H    0.143953
 Sum of Mulliken charges =  -0.00000

 Dipole moment (field-independent basis, Debye):
    X=             -1.0114    Y=             -0.0738    Z=              0.0297  Tot=              1.0145
 Quadrupole moment (field-independent basis, Debye-Ang):
   XX=           -221.9058   YY=           -233.9080   ZZ=           -196.4032
   XY=             -2.0637   XZ=            -10.1203   YZ=             -1.2161

 Normal termination of Gaussian 16 at Sun Nov 29 12:34:00 2020.
