 Gaussian 16, Revision C.01,
 Gaussian 16:  ES64L-G16RevC.01  3-Jul-2019

 -------------------------------------
 # opt=modredundant b3lyp/6-311+g(d,p)
 -------------------------------------

 ----------
 NDI_80.pdb
 ----------
 Symbolic Z-matrix:
 Charge =  0 Multiplicity = 1

 SCF Done:  E(RB3LYP) =  -2359.32950091     A.U. after   21 cycles
 SCF Done:  E(RB3LYP) =  -2359.33316631     A.U. after   15 cycles
 SCF Done:  E(RB3LYP) =  -2359.33425000     A.U. after   17 cycles
 SCF Done:  E(RB3LYP) =  -2359.33446987     A.U. after   14 cycles
 SCF Done:  E(RB3LYP) =  -2359.33458394     A.U. after   14 cycles
 SCF Done:  E(RB3LYP) =  -2359.33463311     A.U. after   12 cycles
 SCF Done:  E(RB3LYP) =  -2359.33464547     A.U. after   12 cycles
 SCF Done:  E(RB3LYP) =  -2359.33465416     A.U. after   11 cycles
 SCF Done:  E(RB3LYP) =  -2359.33465594     A.U. after   10 cycles
 SCF Done:  E(RB3LYP) =  -2359.33465684     A.U. after   10 cycles
 SCF Done:  E(RB3LYP) =  -2359.33465708     A.U. after    9 cycles
 Optimization completed.
    -- Stationary point found.

                         Standard orientation:
 ---------------------------------------------------------------------
 Center     Atomic      Atomic             Coordinates (Angstroms)
 Number     Number       Type             X           Y           Z
 ---------------------------------------------------------------------
      1          6           0       -2.999165   -2.874616    0.538903
      2          6           0       -2.485155   -1.492304    0.346964
      3          6           0       -3.373849   -0.437151    0.045031
      4          6           0       -4.759422   -0.678809   -0.089879
      5          6           0       -5.306026   -2.051345    0.091859
      6          6           0       -1.136414   -1.243111    0.461496
      7          6           0       -2.854638    0.873784   -0.137053
      8          6           0       -1.458843    1.117877    0.000138
      9          6           0       -0.596266    0.061229    0.320313
     10          6           0       -0.950553    2.501555   -0.244333
     11          6           0       -3.273240    3.295811   -0.701091
     12          6           0       -3.759303    1.912533   -0.467397
     13          6           0       -5.113767    1.653957   -0.592988
     14          6           0       -5.618122    0.359720   -0.402299
     15          1           0       -6.676071    0.153016   -0.502416
     16          1           0       -5.772526    2.474697   -0.847184
     17          1           0       -0.471919   -2.065608    0.694045
     18          7           0       -1.893616    3.486513   -0.593722
     19          7           0       -4.379055   -3.063433    0.387736
     20          8           0       -2.276744   -3.811575    0.820629
     21          8           0       -6.494069   -2.291157   -0.010826
     22          8           0       -4.027587    4.210810   -0.977625
     23          8           0        0.219915    2.813869   -0.163491
     24          6           0       -1.352662    4.832401   -0.836043
     25          1           0       -0.848350    5.195261    0.059783
     26          1           0       -0.625615    4.794991   -1.647179
     27          1           0       -2.182298    5.482161   -1.095398
     28          6           0       -4.872165   -4.435529    0.577980
     29          1           0       -4.375718   -5.103617   -0.125691
     30          1           0       -4.646454   -4.771799    1.590327
     31          1           0       -5.944309   -4.431437    0.409647
     32          6           0        0.865205    0.188344    0.509752
     33          6           0        1.539485    0.634315    1.614330
     34         16           0        1.951110   -0.489710   -0.669476
     35          6           0        2.944228    0.462868    1.504674
     36          1           0        1.043498    1.080513    2.463898
     37          6           0        3.358501   -0.130756    0.321466
     38          8           0        3.874888    0.841613    2.424425
     39          6           0        4.704763   -0.407630   -0.111453
     40          6           0        3.414600    1.340924    3.674663
     41          6           0        5.110692   -1.034344   -1.281170
     42         16           0        6.121391    0.037356    0.831062
     43          1           0        4.307928    1.543354    4.263097
     44          1           0        2.847627    2.268862    3.545825
     45          1           0        2.797379    0.599537    4.193030
     46          6           0        6.521627   -1.156164   -1.420152
     47          8           0        4.170985   -1.468938   -2.167086
     48          6           0        7.189177   -0.620740   -0.354396
     49          1           0        7.017079   -1.616744   -2.262397
     50          6           0        4.618859   -2.074246   -3.374167
     51          1           0        8.255708   -0.580356   -0.195410
     52          1           0        5.191637   -2.985302   -3.171436
     53          1           0        3.719793   -2.330378   -3.932170
     54          1           0        5.226890   -1.379448   -3.962926
 ---------------------------------------------------------------------

 The electronic state is 1-A.
 Alpha  occ. eigenvalues --  -88.87845 -88.87538 -19.16319 -19.16231 -19.12785
 Alpha  occ. eigenvalues --  -19.12716 -19.12411 -19.12323 -14.38920 -14.38598
 Alpha  occ. eigenvalues --  -10.31408 -10.31195 -10.31076 -10.31013 -10.23866
 Alpha  occ. eigenvalues --  -10.23803 -10.23751 -10.23391 -10.23331 -10.23324
 Alpha  occ. eigenvalues --  -10.23259 -10.23159 -10.22807 -10.22741 -10.22721
 Alpha  occ. eigenvalues --  -10.21777 -10.21767 -10.21696 -10.21477 -10.21272
 Alpha  occ. eigenvalues --  -10.21075 -10.21008 -10.20876 -10.20041 -10.18341
 Alpha  occ. eigenvalues --  -10.18162  -7.96389  -7.96092  -5.92713  -5.92402
 Alpha  occ. eigenvalues --   -5.92321  -5.92014  -5.91931  -5.91661  -1.09023
 Alpha  occ. eigenvalues --   -1.08795  -1.07841  -1.07748  -1.07222  -1.06956
 Alpha  occ. eigenvalues --   -0.96589  -0.96203  -0.92964  -0.89797  -0.88284
 Alpha  occ. eigenvalues --   -0.86838  -0.84755  -0.80466  -0.78898  -0.77221
 Alpha  occ. eigenvalues --   -0.75925  -0.75520  -0.74621  -0.72948  -0.72506
 Alpha  occ. eigenvalues --   -0.71852  -0.69892  -0.68669  -0.67474  -0.66302
 Alpha  occ. eigenvalues --   -0.65833  -0.64973  -0.60855  -0.59519  -0.58592
 Alpha  occ. eigenvalues --   -0.57733  -0.56547  -0.55691  -0.55621  -0.54161
 Alpha  occ. eigenvalues --   -0.53816  -0.52032  -0.50532  -0.50154  -0.50014
 Alpha  occ. eigenvalues --   -0.49261  -0.48934  -0.48807  -0.48160  -0.47913
 Alpha  occ. eigenvalues --   -0.47720  -0.47464  -0.46907  -0.46580  -0.45607
 Alpha  occ. eigenvalues --   -0.45324  -0.44977  -0.44917  -0.44600  -0.44054
 Alpha  occ. eigenvalues --   -0.42944  -0.42780  -0.42364  -0.42061  -0.41825
 Alpha  occ. eigenvalues --   -0.41479  -0.41321  -0.40989  -0.40774  -0.40138
 Alpha  occ. eigenvalues --   -0.39898  -0.38932  -0.38384  -0.37774  -0.36984
 Alpha  occ. eigenvalues --   -0.35832  -0.35609  -0.33755  -0.33404  -0.33228
 Alpha  occ. eigenvalues --   -0.32913  -0.32637  -0.31346  -0.30492  -0.29977
 Alpha  occ. eigenvalues --   -0.29435  -0.29327  -0.28900  -0.28574  -0.27198
 Alpha  occ. eigenvalues --   -0.26620  -0.24225  -0.23979  -0.18734
 Alpha virt. eigenvalues --   -0.13459  -0.07204  -0.06151  -0.05049  -0.04390
 Alpha virt. eigenvalues --   -0.01070  -0.00090  -0.00076   0.00168   0.00534
 Alpha virt. eigenvalues --    0.00757   0.00884   0.01003   0.01168   0.01769

 Mulliken charges:
               1
     1  C    0.404863
     2  C   -0.012439
     3  C    0.205448
     4  C    0.194325
     5  C    0.264776
     6  C   -0.563074
     7  C    0.191951
     8  C    0.093236
     9  C    0.552748
    10  C   -0.466603
    11  C    0.185785
    12  C    0.166185
    13  C   -0.479559
    14  C   -0.608534
    15  H    0.161503
    16  H    0.162391
    17  H    0.174268
    18  N   -0.167687
    19  N   -0.145946
    20  O   -0.270120
    21  O   -0.269073
    22  O   -0.271329
    23  O   -0.094393
    24  C   -0.214226
    25  H    0.175138
    26  H    0.178351
    27  H    0.183719
    28  C   -0.200116
    29  H    0.175247
    30  H    0.175852
    31  H    0.182629
    32  C    0.049762
    33  C   -0.423855
    34  S   -0.294201
    35  C   -0.079647
    36  H    0.114645
    37  C    0.492570
    38  O   -0.139365
    39  C    0.757613
    40  C   -0.224669
    41  C   -0.011244
    42  S   -0.276708
    43  H    0.164876
    44  H    0.147147
    45  H    0.146117
    46  C   -0.534855
    47  O   -0.143689
    48  C   -0.307672
    49  H    0.128839
    50  C   -0.238586
    51  H    0.157239
    52  H    0.142138
    53  H    0.163054
    54  H    0.145175
 Sum of Mulliken charges =  -0.00000

 Dipole moment (field-independent basis, Debye):
    X=              1.7074    Y=             -0.2610    Z=              0.0634  Tot=              1.7284
 Quadrupole moment (field-independent basis, Debye-Ang):
   XX=           -221.7339   YY=           -228.3609   ZZ=           -201.2962
   XY=             -1.6137   XZ=             -8.6051   YZ=             13.3528

 Normal termination of Gaussian 16 at Sun Nov 29 12:03:41 2020.
