 Gaussian 16, Revision C.01,
 Gaussian 16:  ES64L-G16RevC.01  3-Jul-2019

 -------------------------------------
 # opt=modredundant b3lyp/6-311+g(d,p)
 -------------------------------------

 -----------
 NDI_140.pdb
 -----------
 Symbolic Z-matrix:
 Charge =  0 Multiplicity = 1

 SCF Done:  E(RB3LYP) =  -2359.32362582     A.U. after   17 cycles
 SCF Done:  E(RB3LYP) =  -2359.32250586     A.U. after   19 cycles
 SCF Done:  E(RB3LYP) =  -2359.33050289     A.U. after   15 cycles
 SCF Done:  E(RB3LYP) =  -2359.33496961     A.U. after   19 cycles
 SCF Done:  E(RB3LYP) =  -2359.33562890     A.U. after   16 cycles
 SCF Done:  E(RB3LYP) =  -2359.33613652     A.U. after   14 cycles
 SCF Done:  E(RB3LYP) =  -2359.33622638     A.U. after   12 cycles
 SCF Done:  E(RB3LYP) =  -2359.33624819     A.U. after   12 cycles
 SCF Done:  E(RB3LYP) =  -2359.33625793     A.U. after   12 cycles
 SCF Done:  E(RB3LYP) =  -2359.33625885     A.U. after   10 cycles
 SCF Done:  E(RB3LYP) =  -2359.33625936     A.U. after   10 cycles
 SCF Done:  E(RB3LYP) =  -2359.33625944     A.U. after    9 cycles
 Optimization completed.
    -- Stationary point found.

                         Standard orientation:
 ---------------------------------------------------------------------
 Center     Atomic      Atomic             Coordinates (Angstroms)
 Number     Number       Type             X           Y           Z
 ---------------------------------------------------------------------
      1          6           0        3.415128   -2.735189    0.395821
      2          6           0        2.711161   -1.456875    0.113444
      3          6           0        3.413936   -0.230482    0.150326
      4          6           0        4.790134   -0.199632    0.457915
      5          6           0        5.521336   -1.458828    0.762258
      6          6           0        1.366334   -1.470030   -0.161962
      7          6           0        2.715043    0.969901   -0.154457
      8          6           0        1.321026    0.942051   -0.449792
      9          6           0        0.623273   -0.281817   -0.410547
     10          6           0        0.695403    2.190339   -0.966667
     11          6           0        2.797039    3.461239   -0.523009
     12          6           0        3.450006    2.181235   -0.158152
     13          6           0        4.800043    2.191592    0.157503
     14          6           0        5.474156    1.005090    0.469443
     15          1           0        6.529436    1.007861    0.710339
     16          1           0        5.320838    3.140767    0.148413
     17          1           0        0.847892   -2.419498   -0.135963
     18          7           0        1.467813    3.367368   -0.939462
     19          7           0        4.777828   -2.650330    0.703707
     20          8           0        2.854636   -3.815712    0.372081
     21          8           0        6.704572   -1.467556    1.044511
     22          8           0        3.385549    4.527873   -0.488420
     23          8           0       -0.436371    2.246576   -1.408182
     24          6           0        0.795140    4.585961   -1.412197
     25          1           0        0.475291    4.453017   -2.445706
     26          1           0       -0.087981    4.780176   -0.803080
     27          1           0        1.500754    5.406700   -1.331705
     28          6           0        5.460799   -3.920122    0.990478
     29          1           0        4.972568   -4.418697    1.827907
     30          1           0        5.404411   -4.573797    0.119622
     31          1           0        6.495262   -3.695968    1.230374
     32          6           0       -0.825018   -0.473079   -0.527111
     33          6           0       -1.444932   -1.489473   -1.227332
     34         16           0       -1.980435    0.423398    0.418532
     35          6           0       -2.841891   -1.523600   -1.033414
     36          1           0       -0.906230   -2.163476   -1.877896
     37          6           0       -3.315314   -0.562972   -0.141535
     38          8           0       -3.722751   -2.375951   -1.623649
     39          6           0       -4.669474   -0.362989    0.296787
     40          6           0       -3.197434   -3.431303   -2.422377
     41          6           0       -5.141438    0.589324    1.193357
     42         16           0       -6.014213   -1.349845   -0.264875
     43          1           0       -4.056861   -4.009976   -2.756135
     44          1           0       -2.664498   -3.038200   -3.294365
     45          1           0       -2.529271   -4.072723   -1.838460
     46          6           0       -6.543922    0.531393    1.421128
     47          8           0       -4.267338    1.461757    1.759902
     48          6           0       -7.137996   -0.466935    0.700203
     49          1           0       -7.085500    1.191291    2.082897
     50          6           0       -4.782885    2.449794    2.646453
     51          1           0       -8.183538   -0.733759    0.681674
     52          1           0       -5.255749    1.988012    3.519234
     53          1           0       -3.925573    3.038120    2.968401
     54          1           0       -5.500657    3.100574    2.136869
 ---------------------------------------------------------------------

 The electronic state is 1-A.
 Alpha  occ. eigenvalues --  -88.88276 -88.88117 -19.17071 -19.16890 -19.12413
 Alpha  occ. eigenvalues --  -19.12395 -19.11740 -19.11589 -14.38585 -14.37990
 Alpha  occ. eigenvalues --  -10.31016 -10.30871 -10.30395 -10.30333 -10.24672
 Alpha  occ. eigenvalues --  -10.24505 -10.23867 -10.23725 -10.23599 -10.22817
 Alpha  occ. eigenvalues --  -10.22522 -10.22471 -10.22240 -10.22218 -10.22123
 Alpha  occ. eigenvalues --  -10.21995 -10.21993 -10.21630 -10.21473 -10.21081
 Alpha  occ. eigenvalues --  -10.21029 -10.21019 -10.20881 -10.20558 -10.19081
 Alpha  occ. eigenvalues --  -10.18868  -7.96829  -7.96669  -5.93139  -5.92992
 Alpha  occ. eigenvalues --   -5.92750  -5.92597  -5.92397  -5.92208  -1.08660
 Alpha  occ. eigenvalues --   -1.08630  -1.08438  -1.08124  -1.06853  -1.06257
 Alpha  occ. eigenvalues --   -0.96219  -0.95599  -0.92417  -0.90291  -0.88742
 Alpha  occ. eigenvalues --   -0.86639  -0.84207  -0.80470  -0.78384  -0.77580
 Alpha  occ. eigenvalues --   -0.76441  -0.75309  -0.75085  -0.73221  -0.72447
 Alpha  occ. eigenvalues --   -0.71500  -0.70491  -0.68854  -0.67049  -0.65832
 Alpha  occ. eigenvalues --   -0.65466  -0.64787  -0.60930  -0.59905  -0.58587
 Alpha  occ. eigenvalues --   -0.57394  -0.56724  -0.56305  -0.55055  -0.54807
 Alpha  occ. eigenvalues --   -0.53734  -0.51624  -0.50203  -0.49918  -0.49652
 Alpha  occ. eigenvalues --   -0.49384  -0.48757  -0.48662  -0.48479  -0.48429
 Alpha  occ. eigenvalues --   -0.48112  -0.47040  -0.46573  -0.46292  -0.45855
 Alpha  occ. eigenvalues --   -0.45534  -0.44911  -0.44616  -0.44295  -0.43825
 Alpha  occ. eigenvalues --   -0.42824  -0.42424  -0.42232  -0.41954  -0.41817
 Alpha  occ. eigenvalues --   -0.41613  -0.41240  -0.41131  -0.40520  -0.39868
 Alpha  occ. eigenvalues --   -0.39412  -0.39095  -0.38727  -0.37755  -0.37408
 Alpha  occ. eigenvalues --   -0.36438  -0.35863  -0.34254  -0.33975  -0.33594
 Alpha  occ. eigenvalues --   -0.33414  -0.32049  -0.30922  -0.30148  -0.29747
 Alpha  occ. eigenvalues --   -0.29287  -0.28804  -0.28639  -0.27947  -0.27469
 Alpha  occ. eigenvalues --   -0.26081  -0.24833  -0.24258  -0.19300
 Alpha virt. eigenvalues --   -0.13043  -0.07204  -0.06330  -0.04643  -0.03849
 Alpha virt. eigenvalues --   -0.00831  -0.00492  -0.00329  -0.00034   0.00438
 Alpha virt. eigenvalues --    0.00736   0.01094   0.01355   0.01559   0.01932

 Mulliken charges:
               1
     1  C    0.313539
     2  C   -0.022215
     3  C    0.175164
     4  C    0.256877
     5  C    0.204171
     6  C   -0.206766
     7  C    0.190418
     8  C    0.062991
     9  C    0.268820
    10  C   -0.364649
    11  C    0.267664
    12  C    0.103450
    13  C   -0.463704
    14  C   -0.593011
    15  H    0.159366
    16  H    0.161135
    17  H    0.164504
    18  N   -0.099985
    19  N   -0.142590
    20  O   -0.279908
    21  O   -0.270225
    22  O   -0.279718
    23  O   -0.213036
    24  C   -0.176084
    25  H    0.177590
    26  H    0.176041
    27  H    0.182124
    28  C   -0.194782
    29  H    0.174585
    30  H    0.173338
    31  H    0.182243
    32  C    0.221388
    33  C   -0.636180
    34  S   -0.569124
    35  C   -0.045836
    36  H    0.133374
    37  C    0.616219
    38  O   -0.136217
    39  C    0.866210
    40  C   -0.228184
    41  C    0.007255
    42  S   -0.264946
    43  H    0.166310
    44  H    0.145809
    45  H    0.153484
    46  C   -0.610747
    47  O   -0.135223
    48  C   -0.279684
    49  H    0.131394
    50  C   -0.239775
    51  H    0.160419
    52  H    0.144364
    53  H    0.165891
    54  H    0.146452
 Sum of Mulliken charges =  -0.00000

 Dipole moment (field-independent basis, Debye):
    X=             -3.8916    Y=             -0.6277    Z=              0.4607  Tot=              3.9687
 Quadrupole moment (field-independent basis, Debye-Ang):
   XX=           -215.1472   YY=           -221.1466   ZZ=           -212.4450
   XY=             -8.7518   XZ=            -11.5880   YZ=             14.4324

 Normal termination of Gaussian 16 at Sun Nov 29 15:13:43 2020.
