 Gaussian 16, Revision C.01,
 Gaussian 16:  ES64L-G16RevC.01  3-Jul-2019

 -------------------------------------
 # opt=modredundant b3lyp/6-311+g(d,p)
 -------------------------------------

 -----------
 NDI_-40.pdb
 -----------
 Symbolic Z-matrix:
 Charge =  0 Multiplicity = 1

 SCF Done:  E(RB3LYP) =  -2359.33787817     A.U. after   17 cycles
 SCF Done:  E(RB3LYP) =  -2359.33815859     A.U. after   13 cycles
 SCF Done:  E(RB3LYP) =  -2359.33817075     A.U. after   13 cycles
 SCF Done:  E(RB3LYP) =  -2359.33829175     A.U. after   13 cycles
 SCF Done:  E(RB3LYP) =  -2359.33829608     A.U. after   12 cycles
 SCF Done:  E(RB3LYP) =  -2359.33829942     A.U. after   11 cycles
 SCF Done:  E(RB3LYP) =  -2359.33830028     A.U. after   11 cycles
 SCF Done:  E(RB3LYP) =  -2359.33830058     A.U. after   10 cycles
 SCF Done:  E(RB3LYP) =  -2359.33830066     A.U. after   10 cycles
 Optimization completed.
    -- Stationary point found.

                         Standard orientation:
 ---------------------------------------------------------------------
 Center     Atomic      Atomic             Coordinates (Angstroms)
 Number     Number       Type             X           Y           Z
 ---------------------------------------------------------------------
      1          6           0        2.619762   -2.982379    0.428772
      2          6           0        2.284707   -1.546497    0.235175
      3          6           0        3.310117   -0.584177    0.088962
      4          6           0        4.665015   -0.971930    0.125186
      5          6           0        5.036373   -2.398091    0.328615
      6          6           0        0.971143   -1.157920    0.222629
      7          6           0        2.946727    0.776669   -0.112770
      8          6           0        1.574044    1.171635   -0.136518
      9          6           0        0.563104    0.201637    0.075714
     10          6           0        1.270875    2.583444   -0.496541
     11          6           0        3.705542    3.138245   -0.555731
     12          6           0        3.997040    1.711652   -0.293605
     13          6           0        5.324811    1.311592   -0.247657
     14          6           0        5.666082   -0.027314   -0.035760
     15          1           0        6.700220   -0.344931   -0.003149
     16          1           0        6.089382    2.065286   -0.387371
     17          1           0        0.221676   -1.922774    0.378984
     18          7           0        2.354283    3.465716   -0.674559
     19          7           0        3.978911   -3.313354    0.463744
     20          8           0        1.771767   -3.846324    0.555280
     21          8           0        6.195804   -2.763768    0.374349
     22          8           0        4.582578    3.975865   -0.680599
     23          8           0        0.146413    3.023306   -0.661720
     24          6           0        2.002359    4.851757   -1.014537
     25          1           0        1.435770    4.870509   -1.945447
     26          1           0        1.382726    5.281733   -0.227174
     27          1           0        2.926525    5.411479   -1.117306
     28          6           0        4.298664   -4.734411    0.661084
     29          1           0        3.858905   -5.083354    1.595475
     30          1           0        3.882109   -5.322929   -0.156859
     31          1           0        5.379190   -4.832820    0.687567
     32          6           0       -0.872297    0.440682    0.204123
     33          6           0       -1.555624    1.447432    0.852942
     34         16           0       -1.996468   -0.764396   -0.405898
     35          6           0       -2.950054    1.262995    0.857803
     36          1           0       -1.062524    2.291143    1.305371
     37          6           0       -3.382865    0.109739    0.200179
     38          8           0       -3.871798    2.084877    1.424806
     39          6           0       -4.733704   -0.328727   -0.007566
     40          6           0       -3.418690    3.325868    1.961288
     41          6           0       -5.161252   -1.492116   -0.640175
     42         16           0       -6.135052    0.591070    0.529341
     43          1           0       -4.312745    3.851516    2.291702
     44          1           0       -2.755399    3.164836    2.817340
     45          1           0       -2.902545    3.917044    1.198822
     46          6           0       -6.573997   -1.640811   -0.692942
     47          8           0       -4.239032   -2.354360   -1.138975
     48          6           0       -7.220344   -0.591060   -0.100960
     49          1           0       -7.086175   -2.478512   -1.143038
     50          6           0       -4.700192   -3.556148   -1.750411
     51          1           0       -8.284953   -0.448533    0.004251
     52          1           0       -5.317426   -3.339059   -2.627963
     53          1           0       -3.806463   -4.094690   -2.059720
     54          1           0       -5.266242   -4.166616   -1.039789
 ---------------------------------------------------------------------

 The electronic state is 1-A.
 Alpha  occ. eigenvalues --  -88.88539 -88.88509 -19.17342 -19.16974 -19.12271
 Alpha  occ. eigenvalues --  -19.12234 -19.11580 -19.11524 -14.38443 -14.37954
 Alpha  occ. eigenvalues --  -10.30869 -10.30707 -10.30448 -10.30154 -10.24998
 Alpha  occ. eigenvalues --  -10.24699 -10.24007 -10.23727 -10.23622 -10.22734
 Alpha  occ. eigenvalues --  -10.22529 -10.22416 -10.22314 -10.22065 -10.22056
 Alpha  occ. eigenvalues --  -10.22040 -10.21909 -10.21760 -10.21256 -10.21176
 Alpha  occ. eigenvalues --  -10.20907 -10.20851 -10.20778 -10.20595 -10.19119
 Alpha  occ. eigenvalues --  -10.18944  -7.97090  -7.97073  -5.93400  -5.93390
 Alpha  occ. eigenvalues --   -5.93011  -5.93001  -5.92658  -5.92620  -1.08899
 Alpha  occ. eigenvalues --   -1.08537  -1.08524  -1.08061  -1.06709  -1.06147
 Alpha  occ. eigenvalues --   -0.96087  -0.95503  -0.92240  -0.90486  -0.88907
 Alpha  occ. eigenvalues --   -0.86519  -0.84045  -0.80431  -0.78275  -0.77766
 Alpha  occ. eigenvalues --   -0.76521  -0.75470  -0.75014  -0.73310  -0.72328
 Alpha  occ. eigenvalues --   -0.71766  -0.70448  -0.68852  -0.67005  -0.65701
 Alpha  occ. eigenvalues --   -0.65506  -0.64541  -0.61166  -0.59960  -0.58537
 Alpha  occ. eigenvalues --   -0.57288  -0.56757  -0.56514  -0.55204  -0.54946
 Alpha  occ. eigenvalues --   -0.53404  -0.51551  -0.50258  -0.49866  -0.49613
 Alpha  occ. eigenvalues --   -0.49313  -0.48926  -0.48634  -0.48472  -0.48399
 Alpha  occ. eigenvalues --   -0.48174  -0.46945  -0.46481  -0.46239  -0.45838
 Alpha  occ. eigenvalues --   -0.45691  -0.44847  -0.44395  -0.44097  -0.43563
 Alpha  occ. eigenvalues --   -0.42829  -0.42567  -0.42359  -0.41975  -0.41781
 Alpha  occ. eigenvalues --   -0.41738  -0.41103  -0.41046  -0.40398  -0.39839
 Alpha  occ. eigenvalues --   -0.39477  -0.39120  -0.38969  -0.37767  -0.37428
 Alpha  occ. eigenvalues --   -0.36540  -0.35862  -0.34456  -0.34127  -0.33774
 Alpha  occ. eigenvalues --   -0.33547  -0.31964  -0.30892  -0.30359  -0.29672
 Alpha  occ. eigenvalues --   -0.29212  -0.28758  -0.28573  -0.27938  -0.27237
 Alpha  occ. eigenvalues --   -0.26013  -0.24813  -0.24662  -0.19508
 Alpha virt. eigenvalues --   -0.12937  -0.07407  -0.06347  -0.04462  -0.03751
 Alpha virt. eigenvalues --   -0.00855  -0.00463  -0.00312   0.00008   0.00411
 Alpha virt. eigenvalues --    0.00802   0.01189   0.01479   0.01619   0.01846

 Mulliken charges:
               1
     1  C    0.280100
     2  C   -0.082210
     3  C    0.165041
     4  C    0.201544
     5  C    0.228856
     6  C   -0.326873
     7  C    0.220034
     8  C    0.359855
     9  C    0.454067
    10  C   -0.434820
    11  C    0.205487
    12  C    0.150026
    13  C   -0.476626
    14  C   -0.584592
    15  H    0.158421
    16  H    0.160689
    17  H    0.179306
    18  N   -0.131632
    19  N   -0.142190
    20  O   -0.280995
    21  O   -0.268737
    22  O   -0.277313
    23  O   -0.213807
    24  C   -0.196595
    25  H    0.176246
    26  H    0.169049
    27  H    0.182448
    28  C   -0.197994
    29  H    0.173926
    30  H    0.173774
    31  H    0.182077
    32  C    0.073461
    33  C   -0.498146
    34  S   -0.582796
    35  C   -0.181777
    36  H    0.137147
    37  C    0.710954
    38  O   -0.129994
    39  C    0.812567
    40  C   -0.241306
    41  C   -0.039919
    42  S   -0.260107
    43  H    0.165045
    44  H    0.144674
    45  H    0.162651
    46  C   -0.596397
    47  O   -0.128920
    48  C   -0.268712
    49  H    0.132543
    50  C   -0.240429
    51  H    0.161635
    52  H    0.145294
    53  H    0.169151
    54  H    0.146823
 Sum of Mulliken charges =  -0.00000

 Dipole moment (field-independent basis, Debye):
    X=             -4.7563    Y=             -0.6020    Z=              0.2079  Tot=              4.7987
 Quadrupole moment (field-independent basis, Debye-Ang):
   XX=           -217.0692   YY=           -213.2498   ZZ=           -217.4079
   XY=              4.0574   XZ=              4.0007   YZ=             14.2630

 Normal termination of Gaussian 16 at Sun Nov 29 11:43:10 2020.
