 Gaussian 16, Revision C.01,
 Gaussian 16:  ES64L-G16RevC.01  3-Jul-2019

 -------------------------------------
 # opt=modredundant b3lyp/6-311+g(d,p)
 -------------------------------------

 ------------
 NDI_-115.pdb
 ------------
 Symbolic Z-matrix:
 Charge =  0 Multiplicity = 1

 SCF Done:  E(RB3LYP) =  -2359.32905803     A.U. after   17 cycles
 SCF Done:  E(RB3LYP) =  -2359.33376023     A.U. after   18 cycles
 SCF Done:  E(RB3LYP) =  -2359.33455438     A.U. after   15 cycles
 SCF Done:  E(RB3LYP) =  -2359.33495039     A.U. after   14 cycles
 SCF Done:  E(RB3LYP) =  -2359.33501991     A.U. after   14 cycles
 SCF Done:  E(RB3LYP) =  -2359.33507844     A.U. after   13 cycles
 SCF Done:  E(RB3LYP) =  -2359.33508477     A.U. after   13 cycles
 SCF Done:  E(RB3LYP) =  -2359.33508955     A.U. after   13 cycles
 SCF Done:  E(RB3LYP) =  -2359.33509041     A.U. after   12 cycles
 SCF Done:  E(RB3LYP) =  -2359.33509094     A.U. after   11 cycles
 SCF Done:  E(RB3LYP) =  -2359.33509105     A.U. after   11 cycles
 SCF Done:  E(RB3LYP) =  -2359.33509106     A.U. after   10 cycles
 Optimization completed.
    -- Stationary point found.

                         Standard orientation:
 ---------------------------------------------------------------------
 Center     Atomic      Atomic             Coordinates (Angstroms)
 Number     Number       Type             X           Y           Z
 ---------------------------------------------------------------------
      1          6           0       -3.400822   -2.776472    0.326360
      2          6           0       -2.702985   -1.483646    0.097627
      3          6           0       -3.421253   -0.268081    0.141473
      4          6           0       -4.810460   -0.261426    0.397134
      5          6           0       -5.538670   -1.537562    0.633739
      6          6           0       -1.351394   -1.473665   -0.160627
      7          6           0       -2.731833    0.951264   -0.103040
      8          6           0       -1.330993    0.946513   -0.356622
      9          6           0       -0.630062   -0.268366   -0.361420
     10          6           0       -0.676222    2.231325   -0.742576
     11          6           0       -2.824147    3.454250   -0.393016
     12          6           0       -3.478428    2.155088   -0.096193
     13          6           0       -4.838269    2.139792    0.165757
     14          6           0       -5.507580    0.933741    0.415669
     15          1           0       -6.571694    0.916964    0.614027
     16          1           0       -5.372633    3.081427    0.164271
     17          1           0       -0.815610   -2.414293   -0.173717
     18          7           0       -1.469528    3.394225   -0.727271
     19          7           0       -4.779017   -2.717095    0.568752
     20          8           0       -2.822125   -3.846632    0.319808
     21          8           0       -6.731952   -1.565956    0.867920
     22          8           0       -3.432310    4.509114   -0.365045
     23          8           0        0.492205    2.322734   -1.060398
     24          6           0       -0.781354    4.642762   -1.087748
     25          1           0        0.041586    4.823871   -0.396008
     26          1           0       -0.371430    4.559071   -2.094188
     27          1           0       -1.506526    5.448533   -1.035535
     28          6           0       -5.455286   -4.002638    0.796458
     29          1           0       -5.306837   -4.652011   -0.066235
     30          1           0       -5.031447   -4.492560    1.673541
     31          1           0       -6.511289   -3.802437    0.946924
     32          6           0        0.828514   -0.413616   -0.531274
     33          6           0        1.479587   -1.021098   -1.574526
     34         16           0        1.940750    0.099290    0.703464
     35          6           0        2.887488   -1.045436   -1.399680
     36          1           0        0.964623   -1.406297   -2.442990
     37          6           0        3.324169   -0.486960   -0.205926
     38          8           0        3.797742   -1.571134   -2.265335
     39          6           0        4.674692   -0.396072    0.287344
     40          6           0        3.331236   -2.030442   -3.528839
     41          6           0        5.108040    0.158965    1.483683
     42         16           0        6.061978   -1.003448   -0.607498
     43          1           0        4.214872   -2.362057   -4.071431
     44          1           0        2.640225   -2.872407   -3.414334
     45          1           0        2.842400   -1.224106   -4.085372
     46          6           0        6.516445    0.102576    1.678127
     47          8           0        4.195566    0.695620    2.340339
     48          6           0        7.154201   -0.498597    0.629283
     49          1           0        7.031130    0.485806    2.547128
     50          6           0        4.666192    1.225072    3.574290
     51          1           0        8.212680   -0.672921    0.512221
     52          1           0        5.354956    2.060296    3.409693
     53          1           0        3.784006    1.583773    4.101837
     54          1           0        5.159330    0.452372    4.173286
 ---------------------------------------------------------------------

 The electronic state is 1-A.
 Alpha  occ. eigenvalues --  -88.87732 -88.87674 -19.16449 -19.16409 -19.12703
 Alpha  occ. eigenvalues --  -19.12653 -19.12232 -19.12135 -14.38850 -14.38424
 Alpha  occ. eigenvalues --  -10.31322 -10.31132 -10.30867 -10.30838 -10.23968
 Alpha  occ. eigenvalues --  -10.23918 -10.23748 -10.23435 -10.23392 -10.23255
 Alpha  occ. eigenvalues --  -10.23121 -10.23030 -10.22675 -10.22638 -10.22559
 Alpha  occ. eigenvalues --  -10.21714 -10.21623 -10.21587 -10.21551 -10.21274
 Alpha  occ. eigenvalues --  -10.21221 -10.21005 -10.20862 -10.20195 -10.18568
 Alpha  occ. eigenvalues --  -10.18290  -7.96281  -7.96228  -5.92607  -5.92538
 Alpha  occ. eigenvalues --   -5.92215  -5.92149  -5.91816  -5.91797  -1.08944
 Alpha  occ. eigenvalues --   -1.08612  -1.07995  -1.07915  -1.07141  -1.06770
 Alpha  occ. eigenvalues --   -0.96507  -0.96043  -0.92837  -0.89851  -0.88347
 Alpha  occ. eigenvalues --   -0.86806  -0.84629  -0.80450  -0.78778  -0.77280
 Alpha  occ. eigenvalues --   -0.76026  -0.75415  -0.74739  -0.72888  -0.72642
 Alpha  occ. eigenvalues --   -0.71669  -0.70049  -0.68691  -0.67358  -0.66186
 Alpha  occ. eigenvalues --   -0.65706  -0.64972  -0.60807  -0.59612  -0.58594
 Alpha  occ. eigenvalues --   -0.57648  -0.56627  -0.55790  -0.55333  -0.54317
 Alpha  occ. eigenvalues --   -0.53872  -0.51936  -0.50439  -0.50062  -0.49883
 Alpha  occ. eigenvalues --   -0.49346  -0.48837  -0.48746  -0.48284  -0.48026
 Alpha  occ. eigenvalues --   -0.47727  -0.47445  -0.46803  -0.46528  -0.45642
 Alpha  occ. eigenvalues --   -0.45285  -0.45005  -0.44880  -0.44533  -0.44072
 Alpha  occ. eigenvalues --   -0.42910  -0.42618  -0.42242  -0.42111  -0.41702
 Alpha  occ. eigenvalues --   -0.41428  -0.41375  -0.41079  -0.40717  -0.40091
 Alpha  occ. eigenvalues --   -0.39743  -0.38841  -0.38414  -0.37819  -0.37089
 Alpha  occ. eigenvalues --   -0.35930  -0.35675  -0.33855  -0.33422  -0.33277
 Alpha  occ. eigenvalues --   -0.33140  -0.32498  -0.31215  -0.30279  -0.29915
 Alpha  occ. eigenvalues --   -0.29386  -0.29120  -0.28766  -0.28394  -0.27422
 Alpha  occ. eigenvalues --   -0.26490  -0.24382  -0.23946  -0.18840
 Alpha virt. eigenvalues --   -0.13369  -0.07139  -0.06201  -0.04980  -0.04193
 Alpha virt. eigenvalues --   -0.01004  -0.00249  -0.00153   0.00147   0.00601
 Alpha virt. eigenvalues --    0.00649   0.00973   0.01095   0.01235   0.01801

 Mulliken charges:
               1
     1  C    0.357869
     2  C   -0.006603
     3  C    0.157687
     4  C    0.264563
     5  C    0.259066
     6  C   -0.562023
     7  C    0.180845
     8  C   -0.000680
     9  C    0.329340
    10  C   -0.231161
    11  C    0.280397
    12  C    0.190885
    13  C   -0.488680
    14  C   -0.680534
    15  H    0.161482
    16  H    0.162733
    17  H    0.166322
    18  N   -0.139665
    19  N   -0.141356
    20  O   -0.271269
    21  O   -0.270816
    22  O   -0.275027
    23  O   -0.157529
    24  C   -0.194884
    25  H    0.179261
    26  H    0.176708
    27  H    0.183474
    28  C   -0.200016
    29  H    0.174334
    30  H    0.176093
    31  H    0.182915
    32  C    0.419602
    33  C   -0.593152
    34  S   -0.328535
    35  C   -0.239731
    36  H    0.119084
    37  C    0.360472
    38  O   -0.116129
    39  C    0.926341
    40  C   -0.248045
    41  C   -0.017981
    42  S   -0.251493
    43  H    0.165621
    44  H    0.145280
    45  H    0.151023
    46  C   -0.513678
    47  O   -0.145645
    48  C   -0.298157
    49  H    0.129302
    50  C   -0.236215
    51  H    0.157853
    52  H    0.143307
    53  H    0.163262
    54  H    0.143886
 Sum of Mulliken charges =  -0.00000

 Dipole moment (field-independent basis, Debye):
    X=              2.1743    Y=             -0.1200    Z=             -0.0265  Tot=              2.1778
 Quadrupole moment (field-independent basis, Debye-Ang):
   XX=           -219.1095   YY=           -231.2664   ZZ=           -200.5030
   XY=              6.4484   XZ=             10.4446   YZ=             10.7586

 Normal termination of Gaussian 16 at Sun Nov 29 12:36:36 2020.
