 Gaussian 16, Revision C.01,
 Gaussian 16:  ES64L-G16RevC.01  3-Jul-2019

 -------------------------------------
 # opt=modredundant b3lyp/6-311+g(d,p)
 -------------------------------------

 -----------
 NDI_-65.pdb
 -----------
 Symbolic Z-matrix:
 Charge =  0 Multiplicity = 1

 SCF Done:  E(RB3LYP) =  -2359.33398838     A.U. after   19 cycles
 SCF Done:  E(RB3LYP) =  -2359.33587960     A.U. after   16 cycles
 SCF Done:  E(RB3LYP) =  -2359.33642712     A.U. after   15 cycles
 SCF Done:  E(RB3LYP) =  -2359.33646546     A.U. after   14 cycles
 SCF Done:  E(RB3LYP) =  -2359.33649256     A.U. after   12 cycles
 SCF Done:  E(RB3LYP) =  -2359.33649546     A.U. after   12 cycles
 SCF Done:  E(RB3LYP) =  -2359.33649707     A.U. after   11 cycles
 SCF Done:  E(RB3LYP) =  -2359.33649728     A.U. after   11 cycles
 SCF Done:  E(RB3LYP) =  -2359.33649739     A.U. after   11 cycles
 Optimization completed.
    -- Stationary point found.

                         Standard orientation:
 ---------------------------------------------------------------------
 Center     Atomic      Atomic             Coordinates (Angstroms)
 Number     Number       Type             X           Y           Z
 ---------------------------------------------------------------------
      1          6           0        2.786419   -2.915089    0.601639
      2          6           0        2.370223   -1.509197    0.352818
      3          6           0        3.337592   -0.515805    0.080296
      4          6           0        4.710353   -0.841782    0.038839
      5          6           0        5.161845   -2.236222    0.295865
      6          6           0        1.038184   -1.176335    0.404839
      7          6           0        2.905926    0.817071   -0.164700
      8          6           0        1.520911    1.148094   -0.113956
      9          6           0        0.578329    0.155763    0.213685
     10          6           0        1.116437    2.541336   -0.458832
     11          6           0        3.509086    3.189242   -0.766371
     12          6           0        3.891935    1.788560   -0.467668
     13          6           0        5.234690    1.447473   -0.502835
     14          6           0        5.649359    0.134646   -0.246893
     15          1           0        6.697041   -0.136214   -0.273771
     16          1           0        5.954238    2.221850   -0.736881
     17          1           0        0.321693   -1.953919    0.636398
     18          7           0        2.138938    3.459656   -0.765946
     19          7           0        4.160138   -3.184017    0.561577
     20          8           0        1.990929   -3.806760    0.830225
     21          8           0        6.337581   -2.547926    0.276643
     22          8           0        4.333234    4.052981   -1.009675
     23          8           0       -0.037751    2.921415   -0.506877
     24          6           0        1.696683    4.820659   -1.103031
     25          1           0        1.040447    4.789413   -1.972742
     26          1           0        1.140145    5.247027   -0.268147
     27          1           0        2.580953    5.414052   -1.312389
     28          6           0        4.558194   -4.576235    0.815792
     29          1           0        4.197438   -4.887638    1.796100
     30          1           0        4.116563   -5.229302    0.062596
     31          1           0        5.641511   -4.626721    0.773830
     32          6           0       -0.870971    0.364746    0.347832
     33          6           0       -1.548756    1.125702    1.268331
     34         16           0       -1.969412   -0.647680   -0.557504
     35          6           0       -2.947558    0.929202    1.225304
     36          1           0       -1.051954    1.810250    1.939035
     37          6           0       -3.368740    0.002137    0.276782
     38          8           0       -3.873705    1.549829    2.005352
     39          6           0       -4.716634   -0.376674   -0.051997
     40          6           0       -3.429325    2.594132    2.865788
     41          6           0       -5.130737   -1.330995   -0.973174
     42         16           0       -6.128045    0.358725    0.698129
     43          1           0       -4.324475    2.988880    3.343222
     44          1           0       -2.749379    2.210265    3.633610
     45          1           0       -2.935250    3.388362    2.297279
     46          6           0       -6.542586   -1.469324   -1.075692
     47          8           0       -4.197516   -2.025728   -1.678009
     48          6           0       -7.202224   -0.619586   -0.231973
     49          1           0       -7.044547   -2.161106   -1.736210
     50          6           0       -4.648983   -3.021009   -2.590553
     51          1           0       -8.268343   -0.517923   -0.099273
     52          1           0       -5.263813   -2.580536   -3.382179
     53          1           0       -3.751346   -3.453962   -3.028372
     54          1           0       -5.215218   -3.802521   -2.073600
 ---------------------------------------------------------------------

 The electronic state is 1-A.
 Alpha  occ. eigenvalues --  -88.88175 -88.88006 -19.16803 -19.16591 -19.12529
 Alpha  occ. eigenvalues --  -19.12470 -19.12023 -19.11928 -14.38680 -14.38289
 Alpha  occ. eigenvalues --  -10.31141 -10.30948 -10.30756 -10.30617 -10.24337
 Alpha  occ. eigenvalues --  -10.24241 -10.23736 -10.23653 -10.23442 -10.23059
 Alpha  occ. eigenvalues --  -10.22862 -10.22761 -10.22443 -10.22418 -10.22269
 Alpha  occ. eigenvalues --  -10.21744 -10.21742 -10.21514 -10.21365 -10.21332
 Alpha  occ. eigenvalues --  -10.21279 -10.21085 -10.20811 -10.20577 -10.18673
 Alpha  occ. eigenvalues --  -10.18614  -7.96728  -7.96560  -5.93048  -5.92870
 Alpha  occ. eigenvalues --   -5.92658  -5.92481  -5.92273  -5.92128  -1.08771
 Alpha  occ. eigenvalues --   -1.08428  -1.08334  -1.08133  -1.06964  -1.06561
 Alpha  occ. eigenvalues --   -0.96334  -0.95864  -0.92613  -0.90114  -0.88563
 Alpha  occ. eigenvalues --   -0.86721  -0.84417  -0.80418  -0.78580  -0.77485
 Alpha  occ. eigenvalues --   -0.76220  -0.75277  -0.75040  -0.72987  -0.72507
 Alpha  occ. eigenvalues --   -0.71822  -0.70150  -0.68774  -0.67241  -0.66009
 Alpha  occ. eigenvalues --   -0.65653  -0.64775  -0.60967  -0.59711  -0.58598
 Alpha  occ. eigenvalues --   -0.57485  -0.56663  -0.56071  -0.55439  -0.54542
 Alpha  occ. eigenvalues --   -0.53600  -0.51794  -0.50317  -0.49916  -0.49839
 Alpha  occ. eigenvalues --   -0.49450  -0.48716  -0.48624  -0.48503  -0.48188
 Alpha  occ. eigenvalues --   -0.47950  -0.47197  -0.46672  -0.46385  -0.45773
 Alpha  occ. eigenvalues --   -0.45360  -0.45030  -0.44682  -0.44394  -0.43880
 Alpha  occ. eigenvalues --   -0.42714  -0.42600  -0.42292  -0.42096  -0.41841
 Alpha  occ. eigenvalues --   -0.41353  -0.41335  -0.41251  -0.40626  -0.39832
 Alpha  occ. eigenvalues --   -0.39703  -0.39155  -0.38650  -0.37657  -0.37355
 Alpha  occ. eigenvalues --   -0.36158  -0.35610  -0.34138  -0.33667  -0.33603
 Alpha  occ. eigenvalues --   -0.33261  -0.32316  -0.31114  -0.30358  -0.29810
 Alpha  occ. eigenvalues --   -0.29326  -0.29074  -0.28748  -0.28242  -0.27281
 Alpha  occ. eigenvalues --   -0.26269  -0.24476  -0.24374  -0.19106
 Alpha virt. eigenvalues --   -0.13201  -0.07086  -0.06309  -0.04830  -0.04125
 Alpha virt. eigenvalues --   -0.00965  -0.00288  -0.00272   0.00073   0.00618
 Alpha virt. eigenvalues --    0.00671   0.01042   0.01220   0.01367   0.01818

 Mulliken charges:
               1
     1  C    0.375015
     2  C   -0.055505
     3  C    0.094723
     4  C    0.230545
     5  C    0.223611
     6  C   -0.694961
     7  C    0.217849
     8  C    0.182495
     9  C    0.580151
    10  C   -0.340523
    11  C    0.350235
    12  C    0.111301
    13  C   -0.520754
    14  C   -0.644444
    15  H    0.160245
    16  H    0.161995
    17  H    0.182054
    18  N   -0.160072
    19  N   -0.145746
    20  O   -0.273943
    21  O   -0.269009
    22  O   -0.276373
    23  O   -0.146449
    24  C   -0.197462
    25  H    0.178245
    26  H    0.172808
    27  H    0.183879
    28  C   -0.197849
    29  H    0.174794
    30  H    0.174794
    31  H    0.182873
    32  C    0.116476
    33  C   -0.296550
    34  S   -0.449533
    35  C   -0.376698
    36  H    0.124533
    37  C    0.561493
    38  O   -0.124195
    39  C    0.882396
    40  C   -0.238870
    41  C   -0.027401
    42  S   -0.244236
    43  H    0.165001
    44  H    0.143358
    45  H    0.158008
    46  C   -0.495224
    47  O   -0.133765
    48  C   -0.285045
    49  H    0.130580
    50  C   -0.239326
    51  H    0.159483
    52  H    0.144746
    53  H    0.165410
    54  H    0.144837
 Sum of Mulliken charges =  -0.00000

 Dipole moment (field-independent basis, Debye):
    X=             -3.1300    Y=             -0.3468    Z=              0.1480  Tot=              3.1526
 Quadrupole moment (field-independent basis, Debye-Ang):
   XX=           -219.6811   YY=           -219.7106   ZZ=           -210.2692
   XY=              2.9029   XZ=              6.9709   YZ=             16.9804

 Normal termination of Gaussian 16 at Sun Nov 29 12:05:36 2020.
