 Gaussian 16, Revision C.01,
 Gaussian 16:  ES64L-G16RevC.01  3-Jul-2019

 -------------------------------------
 # opt=modredundant b3lyp/6-311+g(d,p)
 -------------------------------------

 -----------
 NDI_-90.pdb
 -----------
 Symbolic Z-matrix:
 Charge =  0 Multiplicity = 1

 SCF Done:  E(RB3LYP) =  -2359.32980594     A.U. after   22 cycles
 SCF Done:  E(RB3LYP) =  -2359.33371467     A.U. after   15 cycles
 SCF Done:  E(RB3LYP) =  -2359.33414211     A.U. after   13 cycles
 SCF Done:  E(RB3LYP) =  -2359.33416772     A.U. after   13 cycles
 SCF Done:  E(RB3LYP) =  -2359.33423411     A.U. after   12 cycles
 SCF Done:  E(RB3LYP) =  -2359.33423718     A.U. after   12 cycles
 SCF Done:  E(RB3LYP) =  -2359.33424116     A.U. after   11 cycles
 SCF Done:  E(RB3LYP) =  -2359.33424177     A.U. after   11 cycles
 SCF Done:  E(RB3LYP) =  -2359.33424210     A.U. after   10 cycles
 SCF Done:  E(RB3LYP) =  -2359.33424217     A.U. after    9 cycles
 SCF Done:  E(RB3LYP) =  -2359.33424221     A.U. after    9 cycles
 Optimization completed.
    -- Stationary point found.

                         Standard orientation:
 ---------------------------------------------------------------------
 Center     Atomic      Atomic             Coordinates (Angstroms)
 Number     Number       Type             X           Y           Z
 ---------------------------------------------------------------------
      1          6           0        3.184999   -2.859375    0.321584
      2          6           0        2.586539   -1.500495    0.233703
      3          6           0        3.403345   -0.378164   -0.022439
      4          6           0        4.798097   -0.526593   -0.198421
      5          6           0        5.429456   -1.872052   -0.111190
      6          6           0        1.231173   -1.336389    0.415165
      7          6           0        2.806519    0.909578   -0.100338
      8          6           0        1.403321    1.060100    0.082002
      9          6           0        0.613124   -0.062092    0.353235
     10          6           0        0.812897    2.430535   -0.018185
     11          6           0        3.074926    3.393005   -0.452925
     12          6           0        3.642493    2.023166   -0.360248
     13          6           0        5.005380    1.854749   -0.531764
     14          6           0        5.586891    0.580502   -0.450751
     15          1           0        6.652936    0.445219   -0.582533
     16          1           0        5.611596    2.729913   -0.728695
     17          1           0        0.620433   -2.207630    0.615377
     18          7           0        1.693342    3.498014   -0.275685
     19          7           0        4.572418   -2.952753    0.149873
     20          8           0        2.521407   -3.857462    0.526876
     21          8           0        6.626152   -2.033000   -0.256983
     22          8           0        3.769645    4.368492   -0.671506
     23          8           0       -0.371953    2.661973    0.102912
     24          6           0        1.074484    4.828995   -0.369361
     25          1           0        0.338377    4.836919   -1.173259
     26          1           0        0.565119    5.064901    0.565005
     27          1           0        1.862530    5.548700   -0.566285
     28          6           0        5.149341   -4.302239    0.241454
     29          1           0        4.914541   -4.735710    1.213534
     30          1           0        4.721241   -4.939474   -0.532779
     31          1           0        6.223306   -4.215892    0.111100
     32          6           0       -0.851951   -0.029396    0.576998
     33          6           0       -1.513490    0.129366    1.762810
     34         16           0       -1.947227   -0.372544   -0.728980
     35          6           0       -2.923544    0.007115    1.621010
     36          1           0       -1.009213    0.343490    2.694042
     37          6           0       -3.347295   -0.265440    0.330931
     38          8           0       -3.843912    0.122282    2.619584
     39          6           0       -4.697654   -0.438537   -0.146018
     40          6           0       -3.388689    0.527229    3.904898
     41          6           0       -5.114267   -0.732530   -1.435634
     42         16           0       -6.104350   -0.284605    0.897934
     43          1           0       -4.278637    0.602252    4.527632
     44          1           0       -2.707834   -0.214259    4.336635
     45          1           0       -2.892104    1.502104    3.859190
     46          6           0       -6.526240   -0.831376   -1.586474
     47          8           0       -4.183529   -0.893454   -2.419213
     48          6           0       -7.183782   -0.612712   -0.408644
     49          1           0       -7.029134   -1.053298   -2.516473
     50          6           0       -4.640998   -1.228326   -3.723473
     51          1           0       -8.248259   -0.628922   -0.232678
     52          1           0       -5.284223   -0.441703   -4.132010
     53          1           0       -3.748172   -1.320050   -4.339852
     54          1           0       -5.180517   -2.181377   -3.721431
 ---------------------------------------------------------------------

 The electronic state is 1-A.
 Alpha  occ. eigenvalues --  -88.87612 -88.87303 -19.16066 -19.16054 -19.12924
 Alpha  occ. eigenvalues --  -19.12854 -19.12604 -19.12532 -14.39050 -14.38758
 Alpha  occ. eigenvalues --  -10.31551 -10.31331 -10.31243 -10.31210 -10.23947
 Alpha  occ. eigenvalues --  -10.23583 -10.23572 -10.23537 -10.23459 -10.23350
 Alpha  occ. eigenvalues --  -10.23155 -10.23141 -10.22995 -10.22946 -10.22906
 Alpha  occ. eigenvalues --  -10.21990 -10.21903 -10.21891 -10.21373 -10.21327
 Alpha  occ. eigenvalues --  -10.21124 -10.20756 -10.20621 -10.19775 -10.18193
 Alpha  occ. eigenvalues --  -10.17934  -7.96152  -7.95858  -5.92479  -5.92167
 Alpha  occ. eigenvalues --   -5.92086  -5.91779  -5.91691  -5.91427  -1.09161
 Alpha  occ. eigenvalues --   -1.08986  -1.07606  -1.07530  -1.07363  -1.07158
 Alpha  occ. eigenvalues --   -0.96728  -0.96378  -0.93140  -0.89640  -0.88164
 Alpha  occ. eigenvalues --   -0.86844  -0.84924  -0.80510  -0.79063  -0.77084
 Alpha  occ. eigenvalues --   -0.75787  -0.75611  -0.74395  -0.73037  -0.72490
 Alpha  occ. eigenvalues --   -0.71794  -0.69765  -0.68609  -0.67589  -0.66454
 Alpha  occ. eigenvalues --   -0.65932  -0.65060  -0.60833  -0.59438  -0.58561
 Alpha  occ. eigenvalues --   -0.57866  -0.56516  -0.55691  -0.55437  -0.53998
 Alpha  occ. eigenvalues --   -0.53913  -0.52151  -0.50663  -0.50288  -0.50140
 Alpha  occ. eigenvalues --   -0.49109  -0.49066  -0.48888  -0.48042  -0.47807
 Alpha  occ. eigenvalues --   -0.47657  -0.47453  -0.47038  -0.46661  -0.45568
 Alpha  occ. eigenvalues --   -0.45359  -0.45110  -0.44884  -0.44619  -0.44102
 Alpha  occ. eigenvalues --   -0.43084  -0.42891  -0.42515  -0.42026  -0.41839
 Alpha  occ. eigenvalues --   -0.41573  -0.41166  -0.41008  -0.40650  -0.40287
 Alpha  occ. eigenvalues --   -0.40038  -0.38864  -0.38148  -0.37848  -0.36829
 Alpha  occ. eigenvalues --   -0.35822  -0.35463  -0.33611  -0.33180  -0.33022
 Alpha  occ. eigenvalues --   -0.32812  -0.32758  -0.31456  -0.30566  -0.30072
 Alpha  occ. eigenvalues --   -0.29569  -0.29390  -0.28901  -0.28770  -0.27133
 Alpha  occ. eigenvalues --   -0.26846  -0.24094  -0.23739  -0.18546
 Alpha virt. eigenvalues --   -0.13603  -0.07319  -0.06185  -0.05134  -0.04364
 Alpha virt. eigenvalues --   -0.01153  -0.00009   0.00027   0.00225   0.00468
 Alpha virt. eigenvalues --    0.00684   0.00759   0.01046   0.01175   0.01708

 Mulliken charges:
               1
     1  C    0.393869
     2  C    0.035164
     3  C    0.222084
     4  C    0.203838
     5  C    0.258521
     6  C   -0.631810
     7  C    0.196239
     8  C    0.003499
     9  C    0.558485
    10  C   -0.412614
    11  C    0.187929
    12  C    0.207675
    13  C   -0.511238
    14  C   -0.625194
    15  H    0.162273
    16  H    0.163178
    17  H    0.167278
    18  N   -0.168642
    19  N   -0.148520
    20  O   -0.266283
    21  O   -0.268246
    22  O   -0.267845
    23  O   -0.091386
    24  C   -0.217182
    25  H    0.179106
    26  H    0.175435
    27  H    0.183928
    28  C   -0.200458
    29  H    0.175525
    30  H    0.176136
    31  H    0.182525
    32  C    0.188244
    33  C   -0.480838
    34  S   -0.094862
    35  C   -0.090248
    36  H    0.110541
    37  C    0.220532
    38  O   -0.140979
    39  C    0.792228
    40  C   -0.228914
    41  C    0.051296
    42  S   -0.287040
    43  H    0.164335
    44  H    0.141403
    45  H    0.152011
    46  C   -0.542459
    47  O   -0.149816
    48  C   -0.325831
    49  H    0.128043
    50  C   -0.234653
    51  H    0.156121
    52  H    0.142930
    53  H    0.162117
    54  H    0.142571
 Sum of Mulliken charges =  -0.00000

 Dipole moment (field-independent basis, Debye):
    X=             -1.0234    Y=              0.1045    Z=              0.0472  Tot=              1.0298
 Quadrupole moment (field-independent basis, Debye-Ang):
   XX=           -222.0660   YY=           -232.2196   ZZ=           -197.8251
   XY=             -1.3151   XZ=              9.6935   YZ=              8.0101

 Normal termination of Gaussian 16 at Sun Nov 29 12:21:57 2020.
