 Gaussian 16, Revision C.01,
 Gaussian 16:  ES64L-G16RevC.01  3-Jul-2019

 -------------------------------------
 # opt=modredundant b3lyp/6-311+g(d,p)
 -------------------------------------

 -----------
 NDI_-10.pdb
 -----------
 Symbolic Z-matrix:
 Charge =  0 Multiplicity = 1

 SCF Done:  E(RB3LYP) =  -2359.32678231     A.U. after   17 cycles
 SCF Done:  E(RB3LYP) =  -2359.31375883     A.U. after   17 cycles
 SCF Done:  E(RB3LYP) =  -2359.33217587     A.U. after   15 cycles
 SCF Done:  E(RB3LYP) =  -2359.33496925     A.U. after   17 cycles
 SCF Done:  E(RB3LYP) =  -2359.33538113     A.U. after   16 cycles
 SCF Done:  E(RB3LYP) =  -2359.33586073     A.U. after   13 cycles
 SCF Done:  E(RB3LYP) =  -2359.33593276     A.U. after   13 cycles
 SCF Done:  E(RB3LYP) =  -2359.33597206     A.U. after   12 cycles
 SCF Done:  E(RB3LYP) =  -2359.33598305     A.U. after   13 cycles
 SCF Done:  E(RB3LYP) =  -2359.33598777     A.U. after   11 cycles
 SCF Done:  E(RB3LYP) =  -2359.33598942     A.U. after   10 cycles
 SCF Done:  E(RB3LYP) =  -2359.33598988     A.U. after    9 cycles
 SCF Done:  E(RB3LYP) =  -2359.33598998     A.U. after    9 cycles
 Optimization completed.
    -- Stationary point found.

                         Standard orientation:
 ---------------------------------------------------------------------
 Center     Atomic      Atomic             Coordinates (Angstroms)
 Number     Number       Type             X           Y           Z
 ---------------------------------------------------------------------
      1          6           0       -2.419889   -3.034502   -0.087513
      2          6           0       -2.183703   -1.567746   -0.023862
      3          6           0       -3.267059   -0.661176   -0.072345
      4          6           0       -4.587696   -1.135262   -0.190267
      5          6           0       -4.861000   -2.595024   -0.271599
      6          6           0       -0.902451   -1.101084    0.054266
      7          6           0       -2.988371    0.730132    0.027142
      8          6           0       -1.642413    1.212893    0.127869
      9          6           0       -0.555150    0.287727    0.095873
     10          6           0       -1.478103    2.654339    0.445111
     11          6           0       -3.923853    3.065278    0.170349
     12          6           0       -4.102965    1.607656    0.015537
     13          6           0       -5.398137    1.124413   -0.119155
     14          6           0       -5.649796   -0.244428   -0.223962
     15          1           0       -6.657623   -0.626745   -0.320115
     16          1           0       -6.208406    1.842359   -0.130439
     17          1           0       -0.123587   -1.851780    0.042595
     18          7           0       -2.616978    3.481115    0.419761
     19          7           0       -3.748966   -3.452449   -0.205675
     20          8           0       -1.517368   -3.851107   -0.049368
     21          8           0       -5.989000   -3.036336   -0.385476
     22          8           0       -4.850848    3.855870    0.113724
     23          8           0       -0.413670    3.181689    0.729030
     24          6           0       -2.383236    4.905682    0.695753
     25          1           0       -1.943317    5.023012    1.686000
     26          1           0       -1.690459    5.317861   -0.038419
     27          1           0       -3.340936    5.413194    0.638844
     28          6           0       -3.973227   -4.903214   -0.276219
     29          1           0       -3.430351   -5.318125   -1.125623
     30          1           0       -3.604667   -5.377623    0.633737
     31          1           0       -5.039847   -5.070926   -0.386441
     32          6           0        0.872522    0.554320   -0.050685
     33          6           0        1.583992    1.698718   -0.373994
     34         16           0        2.008905   -0.774602    0.235194
     35          6           0        2.973443    1.512114   -0.422672
     36          1           0        1.111313    2.642907   -0.566823
     37          6           0        3.398220    0.219120   -0.105481
     38          8           0        3.901642    2.451147   -0.738952
     39          6           0        4.743558   -0.271658   -0.044721
     40          6           0        3.458486    3.795984   -0.918130
     41          6           0        5.163818   -1.562828    0.266522
     42         16           0        6.149515    0.737167   -0.369599
     43          1           0        4.358148    4.384606   -1.087787
     44          1           0        2.799482    3.878464   -1.788076
     45          1           0        2.939570    4.159578   -0.026497
     46          6           0        6.574140   -1.735779    0.245107
     47          8           0        4.238581   -2.509723    0.556078
     48          6           0        7.225154   -0.578152   -0.082191
     49          1           0        7.081539   -2.664778    0.459676
     50          6           0        4.688223   -3.833611    0.836437
     51          1           0        8.289948   -0.425877   -0.171605
     52          1           0        5.326402   -3.851184    1.725419
     53          1           0        3.789909   -4.419014    1.022125
     54          1           0        5.228038   -4.253433   -0.017997
 ---------------------------------------------------------------------

 The electronic state is 1-A.
 Alpha  occ. eigenvalues --  -88.88919 -88.88670 -19.17696 -19.17196 -19.12127
 Alpha  occ. eigenvalues --  -19.12119 -19.11381 -19.11295 -14.38319 -14.37776
 Alpha  occ. eigenvalues --  -10.30715 -10.30584 -10.30332 -10.29843 -10.25474
 Alpha  occ. eigenvalues --  -10.24941 -10.24218 -10.23984 -10.23682 -10.23039
 Alpha  occ. eigenvalues --  -10.22551 -10.22538 -10.22283 -10.22251 -10.22008
 Alpha  occ. eigenvalues --  -10.21801 -10.21779 -10.21611 -10.21436 -10.21165
 Alpha  occ. eigenvalues --  -10.20821 -10.20528 -10.20483 -10.20446 -10.19474
 Alpha  occ. eigenvalues --  -10.18857  -7.97469  -7.97245  -5.93778  -5.93563
 Alpha  occ. eigenvalues --   -5.93389  -5.93169  -5.93037  -5.92788  -1.09283
 Alpha  occ. eigenvalues --   -1.08763  -1.08393  -1.07910  -1.06573  -1.05929
 Alpha  occ. eigenvalues --   -0.95960  -0.95327  -0.92023  -0.90728  -0.89123
 Alpha  occ. eigenvalues --   -0.86376  -0.83816  -0.80482  -0.78217  -0.77857
 Alpha  occ. eigenvalues --   -0.76719  -0.75669  -0.74879  -0.73551  -0.72214
 Alpha  occ. eigenvalues --   -0.71769  -0.70636  -0.68867  -0.66923  -0.65549
 Alpha  occ. eigenvalues --   -0.65452  -0.64393  -0.61341  -0.60137  -0.58533
 Alpha  occ. eigenvalues --   -0.57273  -0.56842  -0.56667  -0.55347  -0.54956
 Alpha  occ. eigenvalues --   -0.53296  -0.51431  -0.50403  -0.49806  -0.49489
 Alpha  occ. eigenvalues --   -0.49221  -0.49199  -0.48671  -0.48598  -0.48384
 Alpha  occ. eigenvalues --   -0.48165  -0.47003  -0.46478  -0.46120  -0.45985
 Alpha  occ. eigenvalues --   -0.45696  -0.44698  -0.44254  -0.43948  -0.43145
 Alpha  occ. eigenvalues --   -0.43069  -0.42633  -0.42469  -0.42040  -0.41863
 Alpha  occ. eigenvalues --   -0.41577  -0.41011  -0.40944  -0.40299  -0.39952
 Alpha  occ. eigenvalues --   -0.39329  -0.39146  -0.38939  -0.37828  -0.37368
 Alpha  occ. eigenvalues --   -0.36671  -0.36276  -0.34711  -0.34423  -0.33636
 Alpha  occ. eigenvalues --   -0.33544  -0.31779  -0.30763  -0.30442  -0.29591
 Alpha  occ. eigenvalues --   -0.29142  -0.28543  -0.28500  -0.27734  -0.27218
 Alpha  occ. eigenvalues --   -0.26002  -0.25025  -0.24913  -0.19789
 Alpha virt. eigenvalues --   -0.12761  -0.07928  -0.06246  -0.04217  -0.03579
 Alpha virt. eigenvalues --   -0.00851  -0.00428  -0.00297  -0.00098   0.00385
 Alpha virt. eigenvalues --    0.00870   0.01339   0.01418   0.01855   0.01924

 Mulliken charges:
               1
     1  C    0.266015
     2  C    0.046512
     3  C    0.226779
     4  C    0.255663
     5  C    0.240486
     6  C    0.179543
     7  C    0.249740
     8  C    0.342992
     9  C    0.237523
    10  C   -0.842504
    11  C    0.183659
    12  C    0.153163
    13  C   -0.482397
    14  C   -0.604164
    15  H    0.157647
    16  H    0.160986
    17  H    0.164906
    18  N   -0.120541
    19  N   -0.141374
    20  O   -0.286998
    21  O   -0.268005
    22  O   -0.280676
    23  O   -0.260587
    24  C   -0.163929
    25  H    0.177434
    26  H    0.168248
    27  H    0.182865
    28  C   -0.196488
    29  H    0.173417
    30  H    0.172871
    31  H    0.181444
    32  C   -0.058798
    33  C   -0.069498
    34  S   -0.664360
    35  C   -0.631700
    36  H    0.161513
    37  C    0.607968
    38  O   -0.126618
    39  C    0.975710
    40  C   -0.246407
    41  C    0.023652
    42  S   -0.228329
    43  H    0.165960
    44  H    0.145654
    45  H    0.165676
    46  C   -0.585340
    47  O   -0.127089
    48  C   -0.304698
    49  H    0.133998
    50  C   -0.241488
    51  H    0.163789
    52  H    0.145389
    53  H    0.173190
    54  H    0.147595
 Sum of Mulliken charges =  -0.00000

 Dipole moment (field-independent basis, Debye):
    X=              5.8612    Y=             -0.7741    Z=             -0.1772  Tot=              5.9148
 Quadrupole moment (field-independent basis, Debye-Ang):
   XX=           -215.0687   YY=           -208.4638   ZZ=           -222.6687
   XY=             -4.8090   XZ=             -0.4532   YZ=             -7.0650

 Normal termination of Gaussian 16 at Sun Nov 29 13:31:40 2020.
