 Gaussian 16, Revision C.01,
 Gaussian 16:  ES64L-G16RevC.01  3-Jul-2019

 -------------------------------------
 # opt=modredundant b3lyp/6-311+g(d,p)
 -------------------------------------

 -----------
 NDI_-95.pdb
 -----------
 Symbolic Z-matrix:
 Charge =  0 Multiplicity = 1

 SCF Done:  E(RB3LYP) =  -2359.32947495     A.U. after   20 cycles
 SCF Done:  E(RB3LYP) =  -2359.33359044     A.U. after   15 cycles
 SCF Done:  E(RB3LYP) =  -2359.33410308     A.U. after   15 cycles
 SCF Done:  E(RB3LYP) =  -2359.33416247     A.U. after   14 cycles
 SCF Done:  E(RB3LYP) =  -2359.33424085     A.U. after   13 cycles
 SCF Done:  E(RB3LYP) =  -2359.33424410     A.U. after   14 cycles
 SCF Done:  E(RB3LYP) =  -2359.33419490     A.U. after   12 cycles
 SCF Done:  E(RB3LYP) =  -2359.33419589     A.U. after   12 cycles
 SCF Done:  E(RB3LYP) =  -2359.33419589     A.U. after   10 cycles
 SCF Done:  E(RB3LYP) =  -2359.33419594     A.U. after    9 cycles
 Optimization completed.
    -- Stationary point found.

                         Standard orientation:
 ---------------------------------------------------------------------
 Center     Atomic      Atomic             Coordinates (Angstroms)
 Number     Number       Type             X           Y           Z
 ---------------------------------------------------------------------
      1          6           0        3.257312   -2.849487    0.167041
      2          6           0        2.626109   -1.502677    0.155824
      3          6           0        3.412322   -0.349679   -0.054952
      4          6           0        4.807761   -0.455396   -0.255657
      5          6           0        5.471304   -1.788147   -0.247040
      6          6           0        1.269872   -1.380534    0.362770
      7          6           0        2.785079    0.925941   -0.055391
      8          6           0        1.381022    1.033097    0.149713
      9          6           0        0.619566   -0.120942    0.363237
     10          6           0        0.762907    2.394809    0.162306
     11          6           0        2.994421    3.431771   -0.258774
     12          6           0        3.592562    2.071753   -0.259761
     13          6           0        4.956296    1.945051   -0.457653
     14          6           0        5.567498    0.681998   -0.456549
     15          1           0        6.634562    0.579397   -0.608192
     16          1           0        5.540208    2.843847   -0.610616
     17          1           0        0.682038   -2.275331    0.523637
     18          7           0        1.616062    3.495491   -0.041738
     19          7           0        4.643775   -2.900821   -0.028465
     20          8           0        2.620125   -3.872349    0.330004
     21          8           0        6.669028   -1.912850   -0.417811
     22          8           0        3.663269    4.433679   -0.434596
     23          8           0       -0.421985    2.592652    0.332036
     24          6           0        0.969614    4.816635   -0.027568
     25          1           0        0.213005    4.864840   -0.810770
     26          1           0        0.480318    4.976753    0.933214
     27          1           0        1.738384    5.564467   -0.193548
     28          6           0        5.253133   -4.239061   -0.014038
     29          1           0        5.043233   -4.726801    0.937819
     30          1           0        4.828280   -4.846197   -0.813835
     31          1           0        6.322727   -4.120552   -0.154827
     32          6           0       -0.845773   -0.138755    0.588420
     33          6           0       -1.505239   -0.153256    1.785977
     34         16           0       -1.943306   -0.277163   -0.752377
     35          6           0       -2.916397   -0.246976    1.629367
     36          1           0       -0.999662   -0.077754    2.737809
     37          6           0       -3.341854   -0.326009    0.313891
     38          8           0       -3.835404   -0.278422    2.635347
     39          6           0       -4.692351   -0.437338   -0.181203
     40          6           0       -3.377761   -0.070004    3.965848
     41          6           0       -5.110982   -0.535048   -1.499529
     42         16           0       -6.096487   -0.457290    0.877188
     43          1           0       -4.266764   -0.086670    4.594225
     44          1           0       -2.697881   -0.868687    4.281590
     45          1           0       -2.879160    0.899896    4.064928
     46          6           0       -6.522631   -0.623318   -1.660506
     47          8           0       -4.182468   -0.534931   -2.498431
     48          6           0       -7.177786   -0.593570   -0.461629
     49          1           0       -7.026936   -0.705393   -2.612340
     50          6           0       -4.641986   -0.672442   -3.837169
     51          1           0       -8.241457   -0.645830   -0.287726
     52          1           0       -5.294244    0.160636   -4.120068
     53          1           0       -3.750849   -0.660752   -4.462677
     54          1           0       -5.172592   -1.620042   -3.978424
 ---------------------------------------------------------------------

 The electronic state is 1-A.
 Alpha  occ. eigenvalues --  -88.87561 -88.87286 -19.16047 -19.16047 -19.12935
 Alpha  occ. eigenvalues --  -19.12868 -19.12605 -19.12536 -14.39061 -14.38755
 Alpha  occ. eigenvalues --  -10.31563 -10.31345 -10.31237 -10.31212 -10.23949
 Alpha  occ. eigenvalues --  -10.23597 -10.23560 -10.23550 -10.23438 -10.23363
 Alpha  occ. eigenvalues --  -10.23144 -10.23140 -10.23007 -10.22958 -10.22917
 Alpha  occ. eigenvalues --  -10.22004 -10.21914 -10.21895 -10.21383 -10.21314
 Alpha  occ. eigenvalues --  -10.21115 -10.20734 -10.20600 -10.19756 -10.18199
 Alpha  occ. eigenvalues --  -10.17918  -7.96102  -7.95840  -5.92429  -5.92150
 Alpha  occ. eigenvalues --   -5.92037  -5.91762  -5.91640  -5.91410  -1.09171
 Alpha  occ. eigenvalues --   -1.08986  -1.07594  -1.07515  -1.07373  -1.07159
 Alpha  occ. eigenvalues --   -0.96738  -0.96378  -0.93148  -0.89620  -0.88155
 Alpha  occ. eigenvalues --   -0.86839  -0.84932  -0.80512  -0.79071  -0.77071
 Alpha  occ. eigenvalues --   -0.75782  -0.75606  -0.74376  -0.73035  -0.72507
 Alpha  occ. eigenvalues --   -0.71763  -0.69765  -0.68600  -0.67591  -0.66460
 Alpha  occ. eigenvalues --   -0.65931  -0.65071  -0.60823  -0.59436  -0.58556
 Alpha  occ. eigenvalues --   -0.57872  -0.56529  -0.55652  -0.55419  -0.54014
 Alpha  occ. eigenvalues --   -0.53912  -0.52156  -0.50669  -0.50294  -0.50140
 Alpha  occ. eigenvalues --   -0.49094  -0.49068  -0.48894  -0.48034  -0.47797
 Alpha  occ. eigenvalues --   -0.47648  -0.47459  -0.47045  -0.46662  -0.45565
 Alpha  occ. eigenvalues --   -0.45353  -0.45124  -0.44885  -0.44616  -0.44110
 Alpha  occ. eigenvalues --   -0.43099  -0.42886  -0.42517  -0.42027  -0.41819
 Alpha  occ. eigenvalues --   -0.41576  -0.41164  -0.41007  -0.40629  -0.40295
 Alpha  occ. eigenvalues --   -0.40039  -0.38848  -0.38094  -0.37875  -0.36821
 Alpha  occ. eigenvalues --   -0.35825  -0.35454  -0.33590  -0.33175  -0.33005
 Alpha  occ. eigenvalues --   -0.32822  -0.32742  -0.31457  -0.30553  -0.30078
 Alpha  occ. eigenvalues --   -0.29579  -0.29373  -0.28842  -0.28809  -0.27157
 Alpha  occ. eigenvalues --   -0.26859  -0.24083  -0.23708  -0.18534
 Alpha virt. eigenvalues --   -0.13612  -0.07325  -0.06194  -0.05140  -0.04338
 Alpha virt. eigenvalues --   -0.01155  -0.00016   0.00023   0.00252   0.00485
 Alpha virt. eigenvalues --    0.00642   0.00759   0.01051   0.01185   0.01704

 Mulliken charges:
               1
     1  C    0.388030
     2  C    0.056739
     3  C    0.219870
     4  C    0.207766
     5  C    0.264820
     6  C   -0.634874
     7  C    0.197635
     8  C   -0.037832
     9  C    0.508698
    10  C   -0.373378
    11  C    0.197818
    12  C    0.213889
    13  C   -0.523235
    14  C   -0.628084
    15  H    0.162364
    16  H    0.163362
    17  H    0.165627
    18  N   -0.167735
    19  N   -0.148043
    20  O   -0.265951
    21  O   -0.268506
    22  O   -0.267934
    23  O   -0.100773
    24  C   -0.217612
    25  H    0.179495
    26  H    0.175583
    27  H    0.183949
    28  C   -0.200864
    29  H    0.175404
    30  H    0.176335
    31  H    0.182626
    32  C    0.252513
    33  C   -0.479172
    34  S   -0.088179
    35  C   -0.100273
    36  H    0.110610
    37  C    0.179295
    38  O   -0.138644
    39  C    0.805700
    40  C   -0.228204
    41  C    0.053420
    42  S   -0.287959
    43  H    0.164370
    44  H    0.141738
    45  H    0.151622
    46  C   -0.540565
    47  O   -0.151461
    48  C   -0.327223
    49  H    0.127971
    50  C   -0.234120
    51  H    0.156021
    52  H    0.142682
    53  H    0.161962
    54  H    0.142704
 Sum of Mulliken charges =  -0.00000

 Dipole moment (field-independent basis, Debye):
    X=             -0.9845    Y=              0.1239    Z=              0.0552  Tot=              0.9938
 Quadrupole moment (field-independent basis, Debye-Ang):
   XX=           -221.8712   YY=           -233.8236   ZZ=           -196.5018
   XY=             -2.5383   XZ=              9.9763   YZ=              3.7247

 Normal termination of Gaussian 16 at Sun Nov 29 12:16:20 2020.
