 Gaussian 16, Revision C.01,
 Gaussian 16:  ES64L-G16RevC.01  3-Jul-2019

 -------------------------------------
 # opt=modredundant b3lyp/6-311+g(d,p)
 -------------------------------------

 ------------
 NDI_-150.pdb
 ------------
 Symbolic Z-matrix:
 Charge =  0 Multiplicity = 1

 SCF Done:  E(RB3LYP) =  -2359.31464341     A.U. after   17 cycles
 SCF Done:  E(RB3LYP) =  -2359.32371681     A.U. after   17 cycles
 SCF Done:  E(RB3LYP) =  -2359.33194862     A.U. after   16 cycles
 SCF Done:  E(RB3LYP) =  -2359.33434070     A.U. after   14 cycles
 SCF Done:  E(RB3LYP) =  -2359.33491984     A.U. after   13 cycles
 SCF Done:  E(RB3LYP) =  -2359.33496738     A.U. after   15 cycles
 SCF Done:  E(RB3LYP) =  -2359.33512551     A.U. after   12 cycles
 SCF Done:  E(RB3LYP) =  -2359.33522565     A.U. after   13 cycles
 SCF Done:  E(RB3LYP) =  -2359.33529274     A.U. after   13 cycles
 SCF Done:  E(RB3LYP) =  -2359.33538904     A.U. after   13 cycles
 SCF Done:  E(RB3LYP) =  -2359.33528030     A.U. after   16 cycles
 SCF Done:  E(RB3LYP) =  -2359.33561542     A.U. after   13 cycles
 SCF Done:  E(RB3LYP) =  -2359.33562568     A.U. after   14 cycles
 SCF Done:  E(RB3LYP) =  -2359.33568885     A.U. after   13 cycles
 SCF Done:  E(RB3LYP) =  -2359.33569472     A.U. after   12 cycles
 SCF Done:  E(RB3LYP) =  -2359.33569722     A.U. after   11 cycles
 SCF Done:  E(RB3LYP) =  -2359.33569790     A.U. after   11 cycles
 SCF Done:  E(RB3LYP) =  -2359.33569833     A.U. after   10 cycles
 SCF Done:  E(RB3LYP) =  -2359.33569840     A.U. after    8 cycles
 SCF Done:  E(RB3LYP) =  -2359.33569840     A.U. after    9 cycles
 Optimization completed.
    -- Stationary point found.

                         Standard orientation:
 ---------------------------------------------------------------------
 Center     Atomic      Atomic             Coordinates (Angstroms)
 Number     Number       Type             X           Y           Z
 ---------------------------------------------------------------------
      1          6           0       -3.378485   -2.739017    0.381502
      2          6           0       -2.694946   -1.446305    0.114085
      3          6           0       -3.417468   -0.231847    0.156117
      4          6           0       -4.797018   -0.227774    0.446009
      5          6           0       -5.512832   -1.503046    0.717297
      6          6           0       -1.353622   -1.438662   -0.167801
      7          6           0       -2.730503    0.980499   -0.127595
      8          6           0       -1.331997    0.977482   -0.412539
      9          6           0       -0.615609   -0.241318   -0.406072
     10          6           0       -0.722520    2.250087   -0.879895
     11          6           0       -2.858618    3.473507   -0.474310
     12          6           0       -3.487543    2.178874   -0.125266
     13          6           0       -4.841745    2.164202    0.175415
     14          6           0       -5.501642    0.965433    0.464667
     15          1           0       -6.560029    0.948323    0.690568
     16          1           0       -5.376311    3.105690    0.168926
     17          1           0       -0.831459   -2.385187   -0.145717
     18          7           0       -1.522606    3.408108   -0.871489
     19          7           0       -4.750450   -2.682445    0.649784
     20          8           0       -2.792864   -3.806678    0.385838
     21          8           0       -6.699960   -1.535293    0.980959
     22          8           0       -3.468611    4.528466   -0.442213
     23          8           0        0.428126    2.346639   -1.265597
     24          6           0       -0.863010    4.645602   -1.312127
     25          1           0       -0.009077    4.859778   -0.668936
     26          1           0       -0.500865    4.525928   -2.333128
     27          1           0       -1.592158    5.447543   -1.255213
     28          6           0       -5.416478   -3.966159    0.912872
     29          1           0       -5.282139   -4.629841    0.058733
     30          1           0       -4.973781   -4.439610    1.789780
     31          1           0       -6.470197   -3.767461    1.080447
     32          6           0        0.830486   -0.443485   -0.530078
     33          6           0        1.418208   -1.566416   -1.093395
     34         16           0        2.030422    0.524204    0.284683
     35          6           0        2.809359   -1.629371   -0.897599
     36          1           0        0.856967   -2.302360   -1.650470
     37          6           0        3.320570   -0.582014   -0.129970
     38          8           0        3.652971   -2.594060   -1.354293
     39          6           0        4.683674   -0.376807    0.273434
     40          6           0        3.123182   -3.583934   -2.230495
     41          6           0        5.196061    0.663418    1.042563
     42         16           0        5.989775   -1.471578   -0.168182
     43          1           0        3.964371   -4.214397   -2.512877
     44          1           0        2.366373   -4.194073   -1.726541
     45          1           0        2.692367   -3.125275   -3.126405
     46          6           0        6.597849    0.586360    1.267088
     47          8           0        4.359117    1.631994    1.493914
     48          6           0        7.150707   -0.514208    0.673047
     49          1           0        7.167839    1.304568    1.837998
     50          6           0        4.903091    2.667427    2.306988
     51          1           0        8.186509   -0.817218    0.683114
     52          1           0        5.656572    3.243080    1.760029
     53          1           0        4.067136    3.316163    2.561694
     54          1           0        5.340996    2.258995    3.223382
 ---------------------------------------------------------------------

 The electronic state is 1-A.
 Alpha  occ. eigenvalues --  -88.88453 -88.88192 -19.17233 -19.16995 -19.12319
 Alpha  occ. eigenvalues --  -19.12317 -19.11565 -19.11445 -14.38501 -14.37881
 Alpha  occ. eigenvalues --  -10.30917 -10.30787 -10.30266 -10.30149 -10.24903
 Alpha  occ. eigenvalues --  -10.24602 -10.23966 -10.23804 -10.23675 -10.22699
 Alpha  occ. eigenvalues --  -10.22336 -10.22336 -10.22317 -10.22132 -10.22080
 Alpha  occ. eigenvalues --  -10.22061 -10.21804 -10.21796 -10.21345 -10.21094
 Alpha  occ. eigenvalues --  -10.20958 -10.20885 -10.20831 -10.20474 -10.19208
 Alpha  occ. eigenvalues --  -10.19036  -7.97006  -7.96731  -5.93315  -5.93053
 Alpha  occ. eigenvalues --   -5.92926  -5.92652  -5.92574  -5.92276  -1.08814
 Alpha  occ. eigenvalues --   -1.08575  -1.08549  -1.08006  -1.06763  -1.06111
 Alpha  occ. eigenvalues --   -0.96133  -0.95478  -0.92265  -0.90396  -0.88844
 Alpha  occ. eigenvalues --   -0.86544  -0.84060  -0.80477  -0.78248  -0.77641
 Alpha  occ. eigenvalues --   -0.76542  -0.75444  -0.75002  -0.73328  -0.72365
 Alpha  occ. eigenvalues --   -0.71447  -0.70600  -0.68865  -0.66958  -0.65735
 Alpha  occ. eigenvalues --   -0.65395  -0.64727  -0.60959  -0.59979  -0.58565
 Alpha  occ. eigenvalues --   -0.57338  -0.56721  -0.56415  -0.55104  -0.54810
 Alpha  occ. eigenvalues --   -0.53681  -0.51514  -0.50153  -0.49917  -0.49533
 Alpha  occ. eigenvalues --   -0.49317  -0.48883  -0.48642  -0.48565  -0.48362
 Alpha  occ. eigenvalues --   -0.48164  -0.46957  -0.46533  -0.46208  -0.45888
 Alpha  occ. eigenvalues --   -0.45607  -0.44859  -0.44497  -0.44186  -0.43700
 Alpha  occ. eigenvalues --   -0.42870  -0.42435  -0.42200  -0.41980  -0.41736
 Alpha  occ. eigenvalues --   -0.41699  -0.41187  -0.41052  -0.40459  -0.39792
 Alpha  occ. eigenvalues --   -0.39397  -0.39094  -0.38857  -0.37678  -0.37298
 Alpha  occ. eigenvalues --   -0.36513  -0.35993  -0.34362  -0.34055  -0.33672
 Alpha  occ. eigenvalues --   -0.33509  -0.31899  -0.30829  -0.30159  -0.29730
 Alpha  occ. eigenvalues --   -0.29245  -0.28713  -0.28554  -0.27872  -0.27391
 Alpha  occ. eigenvalues --   -0.25991  -0.24923  -0.24264  -0.19427
 Alpha virt. eigenvalues --   -0.12931  -0.07361  -0.06290  -0.04499  -0.03763
 Alpha virt. eigenvalues --   -0.00834  -0.00489  -0.00332  -0.00021   0.00368
 Alpha virt. eigenvalues --    0.00813   0.01082   0.01481   0.01671   0.01998

 Mulliken charges:
               1
     1  C    0.290821
     2  C    0.019794
     3  C    0.204393
     4  C    0.237722
     5  C    0.209598
     6  C   -0.014736
     7  C    0.183037
     8  C    0.082930
     9  C    0.240688
    10  C   -0.316559
    11  C    0.289693
    12  C    0.093741
    13  C   -0.473315
    14  C   -0.615345
    15  H    0.158665
    16  H    0.160951
    17  H    0.164550
    18  N   -0.114701
    19  N   -0.141811
    20  O   -0.282079
    21  O   -0.269651
    22  O   -0.280695
    23  O   -0.219505
    24  C   -0.181059
    25  H    0.175410
    26  H    0.177158
    27  H    0.181965
    28  C   -0.195025
    29  H    0.172643
    30  H    0.174786
    31  H    0.182175
    32  C    0.011028
    33  C   -0.736710
    34  S   -0.602801
    35  C   -0.113554
    36  H    0.136984
    37  C    0.780571
    38  O   -0.138765
    39  C    0.876985
    40  C   -0.226511
    41  C    0.000674
    42  S   -0.253456
    43  H    0.166818
    44  H    0.149202
    45  H    0.149987
    46  C   -0.603132
    47  O   -0.130069
    48  C   -0.274710
    49  H    0.132027
    50  C   -0.241348
    51  H    0.161352
    52  H    0.145900
    53  H    0.167081
    54  H    0.146205
 Sum of Mulliken charges =  -0.00000

 Dipole moment (field-independent basis, Debye):
    X=              4.4771    Y=             -0.6264    Z=              0.2446  Tot=              4.5273
 Quadrupole moment (field-independent basis, Debye-Ang):
   XX=           -213.7353   YY=           -219.9296   ZZ=           -214.1709
   XY=             10.2387   XZ=             10.6598   YZ=             14.3892

 Normal termination of Gaussian 16 at Sun Nov 29 15:41:38 2020.
