 Gaussian 16, Revision C.01,
 Gaussian 16:  ES64L-G16RevC.01  3-Jul-2019

 -------------------------------------
 # opt=modredundant b3lyp/6-311+g(d,p)
 -------------------------------------

 ------------
 NDI_-160.pdb
 ------------
 Symbolic Z-matrix:
 Charge =  0 Multiplicity = 1

 SCF Done:  E(RB3LYP) =  -2359.30483720     A.U. after   17 cycles
 SCF Done:  E(RB3LYP) =  -2359.32370242     A.U. after   17 cycles
 SCF Done:  E(RB3LYP) =  -2359.33267145     A.U. after   16 cycles
 SCF Done:  E(RB3LYP) =  -2359.33429580     A.U. after   14 cycles
 SCF Done:  E(RB3LYP) =  -2359.33484507     A.U. after   14 cycles
 SCF Done:  E(RB3LYP) =  -2359.33489944     A.U. after   13 cycles
 SCF Done:  E(RB3LYP) =  -2359.33498945     A.U. after   13 cycles
 SCF Done:  E(RB3LYP) =  -2359.33505277     A.U. after   12 cycles
 SCF Done:  E(RB3LYP) =  -2359.33513388     A.U. after   14 cycles
 SCF Done:  E(RB3LYP) =  -2359.33517207     A.U. after   13 cycles
 SCF Done:  E(RB3LYP) =  -2359.33519459     A.U. after   12 cycles
 SCF Done:  E(RB3LYP) =  -2359.33520589     A.U. after   12 cycles
 SCF Done:  E(RB3LYP) =  -2359.33521028     A.U. after   13 cycles
 SCF Done:  E(RB3LYP) =  -2359.33521379     A.U. after   11 cycles
 SCF Done:  E(RB3LYP) =  -2359.33521422     A.U. after   11 cycles
 SCF Done:  E(RB3LYP) =  -2359.33521520     A.U. after   10 cycles
 SCF Done:  E(RB3LYP) =  -2359.33521575     A.U. after   12 cycles
 SCF Done:  E(RB3LYP) =  -2359.33521584     A.U. after   11 cycles
 SCF Done:  E(RB3LYP) =  -2359.33521585     A.U. after    9 cycles
 Optimization completed.
    -- Stationary point found.

                         Standard orientation:
 ---------------------------------------------------------------------
 Center     Atomic      Atomic             Coordinates (Angstroms)
 Number     Number       Type             X           Y           Z
 ---------------------------------------------------------------------
      1          6           0       -3.389965   -2.722499    0.329289
      2          6           0       -2.711860   -1.419662    0.098264
      3          6           0       -3.447983   -0.213545    0.121743
      4          6           0       -4.836965   -0.226965    0.354632
      5          6           0       -5.550394   -1.512698    0.577132
      6          6           0       -1.363487   -1.398802   -0.130141
      7          6           0       -2.753507    1.005699   -0.105137
      8          6           0       -1.342268    1.016693   -0.336854
      9          6           0       -0.610225   -0.200448   -0.344202
     10          6           0       -0.721939    2.320265   -0.665898
     11          6           0       -2.891971    3.509008   -0.370750
     12          6           0       -3.521181    2.198201   -0.099998
     13          6           0       -4.888682    2.167172    0.138059
     14          6           0       -5.553241    0.960055    0.368090
     15          1           0       -6.619997    0.930857    0.548373
     16          1           0       -5.426982    3.106504    0.132567
     17          1           0       -0.851407   -2.347945   -0.085508
     18          7           0       -1.530427    3.470221   -0.669916
     19          7           0       -4.772169   -2.683557    0.537727
     20          8           0       -2.792789   -3.784016    0.348730
     21          8           0       -6.748412   -1.561078    0.782590
     22          8           0       -3.516061    4.556371   -0.350796
     23          8           0        0.458454    2.452881   -0.943684
     24          6           0       -0.851291    4.731623   -0.998592
     25          1           0       -0.054409    4.922256   -0.279354
     26          1           0       -0.406954    4.662628   -1.991428
     27          1           0       -1.592343    5.523875   -0.964214
     28          6           0       -5.435302   -3.976439    0.759384
     29          1           0       -5.257011   -4.630480   -0.094194
     30          1           0       -5.026242   -4.453781    1.650392
     31          1           0       -6.497379   -3.790089    0.882538
     32          6           0        0.831858   -0.433366   -0.475194
     33          6           0        1.372057   -1.658769   -0.864999
     34         16           0        2.109161    0.608398    0.114142
     35          6           0        2.758233   -1.754246   -0.689614
     36          1           0        0.779493   -2.453832   -1.290652
     37          6           0        3.332108   -0.618096   -0.113214
     38          8           0        3.549131   -2.815567   -1.003226
     39          6           0        4.714931   -0.410991    0.211266
     40          6           0        2.957067   -3.907199   -1.700968
     41          6           0        5.296023    0.719218    0.780710
     42         16           0        5.959826   -1.624458   -0.071648
     43          1           0        3.764511   -4.610571   -1.896083
     44          1           0        2.189655   -4.396217   -1.092046
     45          1           0        2.521757   -3.576906   -2.649677
     46          6           0        6.699522    0.614558    0.980447
     47          8           0        4.517067    1.787256    1.080994
     48          6           0        7.185427   -0.595247    0.567481
     49          1           0        7.317627    1.390561    1.407476
     50          6           0        5.128709    2.919404    1.692747
     51          1           0        8.207387   -0.940534    0.603797
     52          1           0        5.888332    3.358048    1.037996
     53          1           0        4.328308    3.639461    1.851455
     54          1           0        5.576887    2.652160    2.655018
 ---------------------------------------------------------------------

 The electronic state is 1-A.
 Alpha  occ. eigenvalues --  -88.88603 -88.88239 -19.17351 -19.17086 -19.12257
 Alpha  occ. eigenvalues --  -19.12243 -19.11457 -19.11399 -14.38435 -14.37832
 Alpha  occ. eigenvalues --  -10.30832 -10.30719 -10.30184 -10.29975 -10.25115
 Alpha  occ. eigenvalues --  -10.24655 -10.24021 -10.23864 -10.23855 -10.22595
 Alpha  occ. eigenvalues --  -10.22402 -10.22351 -10.22211 -10.22127 -10.21935
 Alpha  occ. eigenvalues --  -10.21907 -10.21896 -10.21605 -10.21296 -10.21199
 Alpha  occ. eigenvalues --  -10.20911 -10.20684 -10.20624 -10.20441 -10.19258
 Alpha  occ. eigenvalues --  -10.19183  -7.97155  -7.96734  -5.93464  -5.93075
 Alpha  occ. eigenvalues --   -5.93055  -5.92724  -5.92644  -5.92289  -1.08966
 Alpha  occ. eigenvalues --   -1.08644  -1.08505  -1.07971  -1.06690  -1.06021
 Alpha  occ. eigenvalues --   -0.96065  -0.95426  -0.92108  -0.90437  -0.88889
 Alpha  occ. eigenvalues --   -0.86430  -0.83924  -0.80472  -0.78121  -0.77671
 Alpha  occ. eigenvalues --   -0.76614  -0.75543  -0.74950  -0.73396  -0.72312
 Alpha  occ. eigenvalues --   -0.71424  -0.70674  -0.68854  -0.66894  -0.65683
 Alpha  occ. eigenvalues --   -0.65338  -0.64692  -0.60968  -0.60041  -0.58549
 Alpha  occ. eigenvalues --   -0.57328  -0.56734  -0.56460  -0.55243  -0.54732
 Alpha  occ. eigenvalues --   -0.53625  -0.51420  -0.50125  -0.49914  -0.49405
 Alpha  occ. eigenvalues --   -0.49272  -0.48973  -0.48666  -0.48632  -0.48313
 Alpha  occ. eigenvalues --   -0.48164  -0.47014  -0.46537  -0.46139  -0.45914
 Alpha  occ. eigenvalues --   -0.45611  -0.44901  -0.44351  -0.44081  -0.43554
 Alpha  occ. eigenvalues --   -0.42982  -0.42446  -0.42221  -0.41933  -0.41707
 Alpha  occ. eigenvalues --   -0.41638  -0.41194  -0.41002  -0.40424  -0.39728
 Alpha  occ. eigenvalues --   -0.39425  -0.39108  -0.38893  -0.37585  -0.37182
 Alpha  occ. eigenvalues --   -0.36510  -0.36096  -0.34455  -0.34160  -0.33673
 Alpha  occ. eigenvalues --   -0.33358  -0.31783  -0.30741  -0.30245  -0.29673
 Alpha  occ. eigenvalues --   -0.29212  -0.28636  -0.28519  -0.27827  -0.27293
 Alpha  occ. eigenvalues --   -0.25932  -0.24958  -0.24340  -0.19567
 Alpha virt. eigenvalues --   -0.12791  -0.07564  -0.06246  -0.04342  -0.03715
 Alpha virt. eigenvalues --   -0.00821  -0.00503  -0.00357  -0.00001   0.00384
 Alpha virt. eigenvalues --    0.00943   0.01068   0.01518   0.01827   0.01997

 Mulliken charges:
               1
     1  C    0.284969
     2  C    0.008416
     3  C    0.211036
     4  C    0.161839
     5  C    0.253599
     6  C    0.045479
     7  C    0.173232
     8  C    0.157575
     9  C    0.317840
    10  C   -0.175269
    11  C    0.263152
    12  C    0.092964
    13  C   -0.477564
    14  C   -0.607422
    15  H    0.157654
    16  H    0.160547
    17  H    0.161966
    18  N   -0.147773
    19  N   -0.142122
    20  O   -0.285637
    21  O   -0.267908
    22  O   -0.280534
    23  O   -0.218873
    24  C   -0.190873
    25  H    0.174700
    26  H    0.176191
    27  H    0.182785
    28  C   -0.196141
    29  H    0.172658
    30  H    0.174079
    31  H    0.182756
    32  C   -0.165661
    33  C   -0.639349
    34  S   -0.573933
    35  C   -0.317762
    36  H    0.135494
    37  C    0.771030
    38  O   -0.135673
    39  C    0.859935
    40  C   -0.226996
    41  C   -0.010720
    42  S   -0.250747
    43  H    0.167470
    44  H    0.149422
    45  H    0.149763
    46  C   -0.545948
    47  O   -0.120367
    48  C   -0.282255
    49  H    0.132490
    50  C   -0.243344
    51  H    0.162187
    52  H    0.146427
    53  H    0.168906
    54  H    0.146312
 Sum of Mulliken charges =  -0.00000

 Dipole moment (field-independent basis, Debye):
    X=              5.0794    Y=             -0.7062    Z=              0.1662  Tot=              5.1309
 Quadrupole moment (field-independent basis, Debye-Ang):
   XX=           -212.2360   YY=           -216.7615   ZZ=           -218.0563
   XY=             11.9308   XZ=              8.8015   YZ=             12.0231

 Normal termination of Gaussian 16 at Sun Nov 29 16:30:15 2020.
