 Gaussian 16, Revision C.01,
 Gaussian 16:  ES64L-G16RevC.01  3-Jul-2019

 -------------------------------------
 # opt=modredundant b3lyp/6-311+g(d,p)
 -------------------------------------

 ------------
 NDI_-110.pdb
 ------------
 Symbolic Z-matrix:
 Charge =  0 Multiplicity = 1

 SCF Done:  E(RB3LYP) =  -2359.32921676     A.U. after   18 cycles
 SCF Done:  E(RB3LYP) =  -2359.33388166     A.U. after   18 cycles
 SCF Done:  E(RB3LYP) =  -2359.33449198     A.U. after   15 cycles
 SCF Done:  E(RB3LYP) =  -2359.33460724     A.U. after   15 cycles
 SCF Done:  E(RB3LYP) =  -2359.33479016     A.U. after   14 cycles
 SCF Done:  E(RB3LYP) =  -2359.33480802     A.U. after   14 cycles
 SCF Done:  E(RB3LYP) =  -2359.33481916     A.U. after   13 cycles
 SCF Done:  E(RB3LYP) =  -2359.33482170     A.U. after   13 cycles
 SCF Done:  E(RB3LYP) =  -2359.33482245     A.U. after   13 cycles
 SCF Done:  E(RB3LYP) =  -2359.33482296     A.U. after   11 cycles
 SCF Done:  E(RB3LYP) =  -2359.33482306     A.U. after   11 cycles
 SCF Done:  E(RB3LYP) =  -2359.33482309     A.U. after   10 cycles
 Optimization completed.
    -- Stationary point found.

                         Standard orientation:
 ---------------------------------------------------------------------
 Center     Atomic      Atomic             Coordinates (Angstroms)
 Number     Number       Type             X           Y           Z
 ---------------------------------------------------------------------
      1          6           0       -3.383529   -2.794451    0.248343
      2          6           0       -2.694065   -1.490781    0.058163
      3          6           0       -3.421971   -0.282654    0.128173
      4          6           0       -4.813273   -0.293170    0.374175
      5          6           0       -5.533476   -1.580710    0.571206
      6          6           0       -1.340691   -1.463414   -0.191866
      7          6           0       -2.740494    0.948361   -0.076219
      8          6           0       -1.338496    0.960479   -0.321571
      9          6           0       -0.629596   -0.247812   -0.360526
     10          6           0       -0.684179    2.264383   -0.641605
     11          6           0       -2.846556    3.459362   -0.284850
     12          6           0       -3.495097    2.146580   -0.037614
     13          6           0       -4.856498    2.113886    0.212625
     14          6           0       -5.518871    0.895773    0.421435
     15          1           0       -6.584240    0.865805    0.611463
     16          1           0       -5.397808    3.051254    0.235803
     17          1           0       -0.797063   -2.398863   -0.229695
     18          7           0       -1.485745    3.420699   -0.596607
     19          7           0       -4.763914   -2.751999    0.482547
     20          8           0       -2.796655   -3.859507    0.216722
     21          8           0       -6.728403   -1.623993    0.794247
     22          8           0       -3.463849    4.507850   -0.233967
     23          8           0        0.489757    2.374724   -0.930440
     24          6           0       -0.799751    4.686487   -0.896385
     25          1           0        0.009049    4.845899   -0.183015
     26          1           0       -0.370924    4.644000   -1.897519
     27          1           0       -1.531297    5.485154   -0.827062
     28          6           0       -5.431657   -4.048357    0.671084
     29          1           0       -5.272293   -4.673269   -0.207575
     30          1           0       -5.009919   -4.558208    1.537735
     31          1           0       -6.490193   -3.860342    0.819435
     32          6           0        0.831077   -0.373961   -0.546207
     33          6           0        1.484886   -0.862017   -1.646902
     34         16           0        1.939061    0.016915    0.735684
     35          6           0        2.894221   -0.894477   -1.474305
     36          1           0        0.972610   -1.157434   -2.551343
     37          6           0        3.327404   -0.459360   -0.230263
     38          8           0        3.807283   -1.321775   -2.390263
     39          6           0        4.677980   -0.407501    0.270395
     40          6           0        3.342812   -1.650541   -3.694334
     41          6           0        5.107533    0.024441    1.517273
     42         16           0        6.069534   -0.906382   -0.682669
     43          1           0        4.228086   -1.918789   -4.268426
     44          1           0        2.657028   -2.504115   -3.667774
     45          1           0        2.848670   -0.794044   -4.164626
     46          6           0        6.516725   -0.039505    1.704944
     47          8           0        4.191038    0.462009    2.425409
     48          6           0        7.158978   -0.522916    0.599603
     49          1           0        7.028728    0.256026    2.609080
     50          6           0        4.658813    0.864175    3.707275
     51          1           0        8.218781   -0.674971    0.464996
     52          1           0        5.340732    1.717555    3.630216
     53          1           0        3.774479    1.159045    4.269697
     54          1           0        5.158953    0.037622    4.222861
 ---------------------------------------------------------------------

 The electronic state is 1-A.
 Alpha  occ. eigenvalues --  -88.87662 -88.87552 -19.16322 -19.16300 -19.12772
 Alpha  occ. eigenvalues --  -19.12718 -19.12342 -19.12257 -14.38914 -14.38522
 Alpha  occ. eigenvalues --  -10.31394 -10.31195 -10.30974 -10.30949 -10.23843
 Alpha  occ. eigenvalues --  -10.23802 -10.23767 -10.23353 -10.23345 -10.23317
 Alpha  occ. eigenvalues --  -10.23260 -10.23133 -10.22775 -10.22722 -10.22681
 Alpha  occ. eigenvalues --  -10.21766 -10.21740 -10.21662 -10.21500 -10.21270
 Alpha  occ. eigenvalues --  -10.21102 -10.20934 -10.20878 -10.20056 -10.18456
 Alpha  occ. eigenvalues --  -10.18172  -7.96209  -7.96106  -5.92536  -5.92416
 Alpha  occ. eigenvalues --   -5.92144  -5.92028  -5.91744  -5.91675  -1.09012
 Alpha  occ. eigenvalues --   -1.08723  -1.07869  -1.07794  -1.07211  -1.06887
 Alpha  occ. eigenvalues --   -0.96576  -0.96144  -0.92931  -0.89769  -0.88279
 Alpha  occ. eigenvalues --   -0.86825  -0.84722  -0.80463  -0.78866  -0.77215
 Alpha  occ. eigenvalues --   -0.75937  -0.75484  -0.74624  -0.72904  -0.72619
 Alpha  occ. eigenvalues --   -0.71700  -0.69961  -0.68658  -0.67429  -0.66269
 Alpha  occ. eigenvalues --   -0.65768  -0.65007  -0.60801  -0.59555  -0.58586
 Alpha  occ. eigenvalues --   -0.57715  -0.56601  -0.55685  -0.55406  -0.54211
 Alpha  occ. eigenvalues --   -0.53901  -0.52003  -0.50505  -0.50129  -0.49955
 Alpha  occ. eigenvalues --   -0.49270  -0.48902  -0.48801  -0.48191  -0.47935
 Alpha  occ. eigenvalues --   -0.47641  -0.47536  -0.46876  -0.46572  -0.45596
 Alpha  occ. eigenvalues --   -0.45303  -0.45015  -0.44898  -0.44578  -0.44101
 Alpha  occ. eigenvalues --   -0.42966  -0.42693  -0.42319  -0.42069  -0.41726
 Alpha  occ. eigenvalues --   -0.41457  -0.41351  -0.41012  -0.40730  -0.40151
 Alpha  occ. eigenvalues --   -0.39830  -0.38828  -0.38308  -0.37842  -0.37010
 Alpha  occ. eigenvalues --   -0.35860  -0.35636  -0.33770  -0.33327  -0.33199
 Alpha  occ. eigenvalues --   -0.33037  -0.32591  -0.31285  -0.30354  -0.29958
 Alpha  occ. eigenvalues --   -0.29435  -0.29191  -0.28785  -0.28507  -0.27370
 Alpha  occ. eigenvalues --   -0.26593  -0.24288  -0.23870  -0.18744
 Alpha virt. eigenvalues --   -0.13443  -0.07186  -0.06177  -0.05032  -0.04253
 Alpha virt. eigenvalues --   -0.01051  -0.00185  -0.00100   0.00187   0.00582
 Alpha virt. eigenvalues --    0.00647   0.00924   0.01074   0.01187   0.01770

 Mulliken charges:
               1
     1  C    0.365881
     2  C    0.019534
     3  C    0.152894
     4  C    0.257773
     5  C    0.250879
     6  C   -0.625402
     7  C    0.187693
     8  C   -0.017007
     9  C    0.363543
    10  C   -0.221460
    11  C    0.282726
    12  C    0.209486
    13  C   -0.514341
    14  C   -0.670773
    15  H    0.161779
    16  H    0.163049
    17  H    0.165401
    18  N   -0.147346
    19  N   -0.142695
    20  O   -0.269632
    21  O   -0.270387
    22  O   -0.273263
    23  O   -0.142562
    24  C   -0.202578
    25  H    0.179556
    26  H    0.176478
    27  H    0.183667
    28  C   -0.200477
    29  H    0.174555
    30  H    0.176291
    31  H    0.182986
    32  C    0.443062
    33  C   -0.610909
    34  S   -0.268887
    35  C   -0.242331
    36  H    0.116039
    37  C    0.322034
    38  O   -0.117625
    39  C    0.913080
    40  C   -0.246384
    41  C   -0.006779
    42  S   -0.256125
    43  H    0.165343
    44  H    0.144620
    45  H    0.150982
    46  C   -0.511363
    47  O   -0.147210
    48  C   -0.303790
    49  H    0.128870
    50  C   -0.235577
    51  H    0.157345
    52  H    0.142958
    53  H    0.162760
    54  H    0.143641
 Sum of Mulliken charges =  -0.00000

 Dipole moment (field-independent basis, Debye):
    X=              1.8117    Y=             -0.0344    Z=             -0.0557  Tot=              1.8129
 Quadrupole moment (field-independent basis, Debye-Ang):
   XX=           -219.8906   YY=           -232.7713   ZZ=           -198.6465
   XY=              5.7025   XZ=             10.3731   YZ=              8.2690

 Normal termination of Gaussian 16 at Sun Nov 29 13:25:35 2020.
