 Gaussian 16, Revision C.01,
 Gaussian 16:  ES64L-G16RevC.01  3-Jul-2019

 -------------------------------------
 # opt=modredundant b3lyp/6-311+g(d,p)
 -------------------------------------

 ------------
 NDI_-105.pdb
 ------------
 Symbolic Z-matrix:
 Charge =  0 Multiplicity = 1

 SCF Done:  E(RB3LYP) =  -2359.32924589     A.U. after   19 cycles
 SCF Done:  E(RB3LYP) =  -2359.33375224     A.U. after   16 cycles
 SCF Done:  E(RB3LYP) =  -2359.33426292     A.U. after   15 cycles
 SCF Done:  E(RB3LYP) =  -2359.33441761     A.U. after   15 cycles
 SCF Done:  E(RB3LYP) =  -2359.33454096     A.U. after   14 cycles
 SCF Done:  E(RB3LYP) =  -2359.33455346     A.U. after   14 cycles
 SCF Done:  E(RB3LYP) =  -2359.33456486     A.U. after   14 cycles
 SCF Done:  E(RB3LYP) =  -2359.33456682     A.U. after   12 cycles
 SCF Done:  E(RB3LYP) =  -2359.33456759     A.U. after   13 cycles
 SCF Done:  E(RB3LYP) =  -2359.33456794     A.U. after   11 cycles
 SCF Done:  E(RB3LYP) =  -2359.33456804     A.U. after   11 cycles
 SCF Done:  E(RB3LYP) =  -2359.33456811     A.U. after   10 cycles
 Optimization completed.
    -- Stationary point found.

                         Standard orientation:
 ---------------------------------------------------------------------
 Center     Atomic      Atomic             Coordinates (Angstroms)
 Number     Number       Type             X           Y           Z
 ---------------------------------------------------------------------
      1          6           0        3.357833   -2.814175   -0.136648
      2          6           0        2.680405   -1.497357   -0.000092
      3          6           0        3.421178   -0.300431   -0.109366
      4          6           0        4.814245   -0.334085   -0.345095
      5          6           0        5.522820   -1.635408   -0.487395
      6          6           0        1.325607   -1.446693    0.240589
      7          6           0        2.751078    0.944499    0.040233
      8          6           0        1.348129    0.979560    0.276579
      9          6           0        0.628078   -0.218382    0.364061
     10          6           0        0.698185    2.304506    0.511747
     11          6           0        2.877758    3.461829    0.136231
     12          6           0        3.516815    2.133252   -0.044487
     13          6           0        4.879392    2.077381   -0.282138
     14          6           0        5.531413    0.845009   -0.434935
     15          1           0        6.597721    0.797313   -0.616010
     16          1           0        5.430020    3.007715   -0.341244
     17          1           0        0.771861   -2.374119    0.313343
     18          7           0        1.511010    3.450295    0.423402
     19          7           0        4.740293   -2.794487   -0.362329
     20          8           0        2.759962   -3.871170   -0.068288
     21          8           0        6.719034   -1.698700   -0.698180
     22          8           0        3.506879    4.500802    0.050738
     23          8           0       -0.480559    2.438656    0.767613
     24          6           0        0.830908    4.735400    0.644595
     25          1           0        0.037495    4.864336   -0.091794
     26          1           0        0.382575    4.747850    1.637989
     27          1           0        1.570839    5.523558    0.549100
     28          6           0        5.395845   -4.103820   -0.496683
     29          1           0        5.224058   -4.693232    0.403891
     30          1           0        4.974695   -4.641860   -1.346392
     31          1           0        6.457263   -3.932317   -0.644441
     32          6           0       -0.834620   -0.318462    0.565592
     33          6           0       -1.491265   -0.666551    1.715070
     34         16           0       -1.938070   -0.076983   -0.756053
     35          6           0       -2.901663   -0.712443    1.544336
     36          1           0       -0.981886   -0.854534    2.649323
     37          6           0       -3.331114   -0.425343    0.257913
     38          8           0       -3.817679   -1.022969    2.503842
     39          6           0       -4.681573   -0.419797   -0.247567
     40          6           0       -3.355792   -1.196622    3.838134
     41          6           0       -5.106400   -0.139246   -1.538050
     42         16           0       -6.078365   -0.781699    0.757937
     43          1           0       -4.242802   -1.390126    4.439044
     44          1           0       -2.674528   -2.050872    3.914363
     45          1           0       -2.857372   -0.292920    4.204080
     46          6           0       -6.516441   -0.209622   -1.718244
     47          8           0       -4.184893    0.172637   -2.492638
     48          6           0       -7.164168   -0.546016   -0.562812
     49          1           0       -7.025068   -0.021579   -2.652562
     50          6           0       -4.649130    0.421198   -3.813923
     51          1           0       -8.225547   -0.668663   -0.411743
     52          1           0       -5.320874    1.285654   -3.841860
     53          1           0       -3.762008    0.634790   -4.407882
     54          1           0       -5.159686   -0.455881   -4.225427
 ---------------------------------------------------------------------

 The electronic state is 1-A.
 Alpha  occ. eigenvalues --  -88.87603 -88.87437 -19.16203 -19.16195 -19.12840
 Alpha  occ. eigenvalues --  -19.12781 -19.12449 -19.12373 -14.38976 -14.38617
 Alpha  occ. eigenvalues --  -10.31465 -10.31258 -10.31080 -10.31057 -10.23859
 Alpha  occ. eigenvalues --  -10.23722 -10.23624 -10.23449 -10.23391 -10.23259
 Alpha  occ. eigenvalues --  -10.23243 -10.23231 -10.22872 -10.22804 -10.22797
 Alpha  occ. eigenvalues --  -10.21852 -10.21818 -10.21768 -10.21417 -10.21318
 Alpha  occ. eigenvalues --  -10.21006 -10.20942 -10.20757 -10.19926 -10.18349
 Alpha  occ. eigenvalues --  -10.18062  -7.96148  -7.95992  -5.92475  -5.92302
 Alpha  occ. eigenvalues --   -5.92083  -5.91913  -5.91684  -5.91561  -1.09079
 Alpha  occ. eigenvalues --   -1.08832  -1.07752  -1.07677  -1.07279  -1.06999
 Alpha  occ. eigenvalues --   -0.96644  -0.96241  -0.93021  -0.89697  -0.88220
 Alpha  occ. eigenvalues --   -0.86835  -0.84810  -0.80479  -0.78951  -0.77153
 Alpha  occ. eigenvalues --   -0.75857  -0.75546  -0.74516  -0.72950  -0.72576
 Alpha  occ. eigenvalues --   -0.71724  -0.69879  -0.68630  -0.67497  -0.66348
 Alpha  occ. eigenvalues --   -0.65832  -0.65038  -0.60802  -0.59503  -0.58574
 Alpha  occ. eigenvalues --   -0.57780  -0.56575  -0.55599  -0.55467  -0.54116
 Alpha  occ. eigenvalues --   -0.53922  -0.52067  -0.50572  -0.50197  -0.50030
 Alpha  occ. eigenvalues --   -0.49190  -0.48972  -0.48847  -0.48109  -0.47855
 Alpha  occ. eigenvalues --   -0.47614  -0.47561  -0.46949  -0.46611  -0.45564
 Alpha  occ. eigenvalues --   -0.45327  -0.45054  -0.44888  -0.44607  -0.44115
 Alpha  occ. eigenvalues --   -0.43023  -0.42769  -0.42399  -0.42035  -0.41764
 Alpha  occ. eigenvalues --   -0.41508  -0.41280  -0.40988  -0.40706  -0.40212
 Alpha  occ. eigenvalues --   -0.39916  -0.38827  -0.38205  -0.37862  -0.36932
 Alpha  occ. eigenvalues --   -0.35828  -0.35572  -0.33688  -0.33244  -0.33123
 Alpha  occ. eigenvalues --   -0.32941  -0.32672  -0.31355  -0.30430  -0.30005
 Alpha  occ. eigenvalues --   -0.29492  -0.29261  -0.28803  -0.28624  -0.27302
 Alpha  occ. eigenvalues --   -0.26697  -0.24199  -0.23797  -0.18653
 Alpha virt. eigenvalues --   -0.13514  -0.07241  -0.06171  -0.05076  -0.04296
 Alpha virt. eigenvalues --   -0.01100  -0.00121  -0.00051   0.00218   0.00559
 Alpha virt. eigenvalues --    0.00630   0.00861   0.01070   0.01160   0.01739

 Mulliken charges:
               1
     1  C    0.373773
     2  C    0.049723
     3  C    0.156413
     4  C    0.246828
     5  C    0.246173
     6  C   -0.681125
     7  C    0.193196
     8  C   -0.025664
     9  C    0.415669
    10  C   -0.230403
    11  C    0.274877
    12  C    0.225615
    13  C   -0.536282
    14  C   -0.655843
    15  H    0.162044
    16  H    0.163320
    17  H    0.164607
    18  N   -0.154526
    19  N   -0.144459
    20  O   -0.267991
    21  O   -0.269769
    22  O   -0.271177
    23  O   -0.126798
    24  C   -0.209956
    25  H    0.179701
    26  H    0.176221
    27  H    0.183824
    28  C   -0.200723
    29  H    0.174793
    30  H    0.176489
    31  H    0.183024
    32  C    0.440242
    33  C   -0.641089
    34  S   -0.203346
    35  C   -0.252622
    36  H    0.113478
    37  C    0.276100
    38  O   -0.120097
    39  C    0.916268
    40  C   -0.244153
    41  C    0.013467
    42  S   -0.260419
    43  H    0.165066
    44  H    0.144005
    45  H    0.151023
    46  C   -0.509247
    47  O   -0.148913
    48  C   -0.310225
    49  H    0.128475
    50  C   -0.234905
    51  H    0.156885
    52  H    0.142786
    53  H    0.162333
    54  H    0.143312
 Sum of Mulliken charges =  -0.00000

 Dipole moment (field-independent basis, Debye):
    X=             -1.4629    Y=              0.0437    Z=              0.0699  Tot=              1.4652
 Quadrupole moment (field-independent basis, Debye-Ang):
   XX=           -220.6551   YY=           -233.9393   ZZ=           -197.1156
   XY=             -4.8101   XZ=             10.3042   YZ=             -4.9460

 Normal termination of Gaussian 16 at Sun Nov 29 13:53:23 2020.
