 Gaussian 16, Revision C.01,
 Gaussian 16:  ES64L-G16RevC.01  3-Jul-2019

 -------------------------------------
 # opt=modredundant b3lyp/6-311+g(d,p)
 -------------------------------------

 ----------
 NDI_70.pdb
 ----------
 Symbolic Z-matrix:
 Charge =  0 Multiplicity = 1

 SCF Done:  E(RB3LYP) =  -2359.33027479     A.U. after   18 cycles
 SCF Done:  E(RB3LYP) =  -2359.33410931     A.U. after   16 cycles
 SCF Done:  E(RB3LYP) =  -2359.33526677     A.U. after   16 cycles
 SCF Done:  E(RB3LYP) =  -2359.33554424     A.U. after   14 cycles
 SCF Done:  E(RB3LYP) =  -2359.33566255     A.U. after   14 cycles
 SCF Done:  E(RB3LYP) =  -2359.33570341     A.U. after   12 cycles
 SCF Done:  E(RB3LYP) =  -2359.33571281     A.U. after   12 cycles
 SCF Done:  E(RB3LYP) =  -2359.33571651     A.U. after   12 cycles
 SCF Done:  E(RB3LYP) =  -2359.33571747     A.U. after   11 cycles
 SCF Done:  E(RB3LYP) =  -2359.33571790     A.U. after    9 cycles
 SCF Done:  E(RB3LYP) =  -2359.33571804     A.U. after   10 cycles
 Optimization completed.
    -- Stationary point found.

                         Standard orientation:
 ---------------------------------------------------------------------
 Center     Atomic      Atomic             Coordinates (Angstroms)
 Number     Number       Type             X           Y           Z
 ---------------------------------------------------------------------
      1          6           0       -2.817894   -2.895036    0.639641
      2          6           0       -2.386753   -1.493917    0.389319
      3          6           0       -3.340687   -0.497414    0.084270
      4          6           0       -4.713330   -0.817626    0.000810
      5          6           0       -5.178288   -2.210430    0.242896
      6          6           0       -1.052018   -1.171365    0.453577
      7          6           0       -2.896448    0.832105   -0.155618
      8          6           0       -1.511718    1.155696   -0.070442
      9          6           0       -0.581637    0.156338    0.263607
     10          6           0       -1.091485    2.552289   -0.384721
     11          6           0       -3.467011    3.202537   -0.797072
     12          6           0       -3.867236    1.806671   -0.495255
     13          6           0       -5.209588    1.471609   -0.569579
     14          6           0       -5.637816    0.161635   -0.318999
     15          1           0       -6.685236   -0.105052   -0.379117
     16          1           0       -5.917975    2.246968   -0.832642
     17          1           0       -0.342455   -1.952354    0.694959
     18          7           0       -2.096828    3.468393   -0.748748
     19          7           0       -4.189019   -3.162154    0.538778
     20          8           0       -2.037218   -3.782707    0.926746
     21          8           0       -6.354128   -2.517150    0.187088
     22          8           0       -4.278377    4.066036   -1.080003
     23          8           0        0.061630    2.935568   -0.355446
     24          6           0       -1.638121    4.828798   -1.066272
     25          1           0       -1.129846    5.259819   -0.203397
     26          1           0       -0.932818    4.793525   -1.896475
     27          1           0       -2.509543    5.419962   -1.328818
     28          6           0       -4.601006   -4.551393    0.787348
     29          1           0       -4.090525   -5.214939    0.089405
     30          1           0       -4.326914   -4.841919    1.801949
     31          1           0       -5.676396   -4.609912    0.653237
     32          6           0        0.872535    0.352455    0.400633
     33          6           0        1.559826    1.034550    1.372568
     34         16           0        1.955859   -0.588607   -0.592298
     35          6           0        2.958714    0.833082    1.303504
     36          1           0        1.071493    1.667535    2.098183
     37          6           0        3.366682   -0.017969    0.282663
     38          8           0        3.896141    1.405621    2.107395
     39          6           0        4.709847   -0.378502   -0.087018
     40          6           0        3.444820    2.183432    3.210921
     41          6           0        5.109818   -1.263239   -1.080391
     42         16           0        6.132178    0.287862    0.705219
     43          1           0        4.342404    2.510554    3.732870
     44          1           0        2.881476    3.059254    2.872812
     45          1           0        2.826859    1.584751    3.888277
     46          6           0        6.519853   -1.404825   -1.203245
     47          8           0        4.165782   -1.901221   -1.824708
     48          6           0        7.192482   -0.626198   -0.303097
     49          1           0        7.011466   -2.049314   -1.917260
     50          6           0        4.604903   -2.776038   -2.858173
     51          1           0        8.260239   -0.543199   -0.170696
     52          1           0        5.187530   -3.608492   -2.450226
     53          1           0        3.701418   -3.163077   -3.326078
     54          1           0        5.199865   -2.238510   -3.603725
 ---------------------------------------------------------------------

 The electronic state is 1-A.
 Alpha  occ. eigenvalues --  -88.88083 -88.87874 -19.16669 -19.16477 -19.12598
 Alpha  occ. eigenvalues --  -19.12537 -19.12121 -19.12035 -14.38745 -14.38369
 Alpha  occ. eigenvalues --  -10.31213 -10.31015 -10.30837 -10.30719 -10.24172
 Alpha  occ. eigenvalues --  -10.24111 -10.23780 -10.23569 -10.23400 -10.23152
 Alpha  occ. eigenvalues --  -10.23001 -10.22874 -10.22542 -10.22506 -10.22395
 Alpha  occ. eigenvalues --  -10.21667 -10.21585 -10.21549 -10.21450 -10.21395
 Alpha  occ. eigenvalues --  -10.21227 -10.21137 -10.20850 -10.20425 -10.18578
 Alpha  occ. eigenvalues --  -10.18486  -7.96634  -7.96428  -5.92956  -5.92738
 Alpha  occ. eigenvalues --   -5.92565  -5.92349  -5.92179  -5.91997  -1.08840
 Alpha  occ. eigenvalues --   -1.08527  -1.08196  -1.08020  -1.07034  -1.06666
 Alpha  occ. eigenvalues --   -0.96403  -0.95955  -0.92708  -0.90019  -0.88478
 Alpha  occ. eigenvalues --   -0.86760  -0.84510  -0.80422  -0.78664  -0.77411
 Alpha  occ. eigenvalues --   -0.76141  -0.75343  -0.74923  -0.72931  -0.72527
 Alpha  occ. eigenvalues --   -0.71836  -0.70076  -0.68742  -0.67303  -0.66088
 Alpha  occ. eigenvalues --   -0.65698  -0.64831  -0.60921  -0.59650  -0.58601
 Alpha  occ. eigenvalues --   -0.57549  -0.56632  -0.55959  -0.55502  -0.54429
 Alpha  occ. eigenvalues --   -0.53657  -0.51857  -0.50362  -0.49967  -0.49873
 Alpha  occ. eigenvalues --   -0.49427  -0.48762  -0.48676  -0.48403  -0.48109
 Alpha  occ. eigenvalues --   -0.47877  -0.47286  -0.46730  -0.46436  -0.45730
 Alpha  occ. eigenvalues --   -0.45301  -0.45046  -0.44751  -0.44465  -0.43926
 Alpha  occ. eigenvalues --   -0.42763  -0.42632  -0.42215  -0.42160  -0.41832
 Alpha  occ. eigenvalues --   -0.41405  -0.41316  -0.41197  -0.40682  -0.39913
 Alpha  occ. eigenvalues --   -0.39730  -0.39064  -0.38628  -0.37683  -0.37219
 Alpha  occ. eigenvalues --   -0.36048  -0.35611  -0.33988  -0.33653  -0.33490
 Alpha  occ. eigenvalues --   -0.33160  -0.32400  -0.31181  -0.30380  -0.29869
 Alpha  occ. eigenvalues --   -0.29353  -0.29133  -0.28791  -0.28333  -0.27266
 Alpha  occ. eigenvalues --   -0.26358  -0.24388  -0.24273  -0.19005
 Alpha virt. eigenvalues --   -0.13266  -0.07089  -0.06252  -0.04905  -0.04232
 Alpha virt. eigenvalues --   -0.00972  -0.00240  -0.00215   0.00102   0.00624
 Alpha virt. eigenvalues --    0.00691   0.00973   0.01123   0.01303   0.01827

 Mulliken charges:
               1
     1  C    0.409099
     2  C   -0.011084
     3  C    0.098464
     4  C    0.243120
     5  C    0.217451
     6  C   -0.680865
     7  C    0.215794
     8  C    0.113541
     9  C    0.546171
    10  C   -0.332207
    11  C    0.355701
    12  C    0.094047
    13  C   -0.510248
    14  C   -0.660807
    15  H    0.160596
    16  H    0.162215
    17  H    0.181807
    18  N   -0.165168
    19  N   -0.144995
    20  O   -0.272911
    21  O   -0.269499
    22  O   -0.275721
    23  O   -0.133636
    24  C   -0.201501
    25  H    0.173952
    26  H    0.178422
    27  H    0.184068
    28  C   -0.198430
    29  H    0.174693
    30  H    0.175469
    31  H    0.182969
    32  C    0.102855
    33  C   -0.340854
    34  S   -0.417344
    35  C   -0.315143
    36  H    0.124036
    37  C    0.539441
    38  O   -0.123037
    39  C    0.884282
    40  C   -0.227986
    41  C   -0.053080
    42  S   -0.239443
    43  H    0.165368
    44  H    0.150899
    45  H    0.146312
    46  C   -0.477886
    47  O   -0.137461
    48  C   -0.293682
    49  H    0.130024
    50  C   -0.240474
    51  H    0.158991
    52  H    0.143322
    53  H    0.164544
    54  H    0.145808
 Sum of Mulliken charges =  -0.00000

 Dipole moment (field-independent basis, Debye):
    X=              2.7168    Y=             -0.4510    Z=              0.1544  Tot=              2.7583
 Quadrupole moment (field-independent basis, Debye-Ang):
   XX=           -220.5821   YY=           -222.8571   ZZ=           -206.8235
   XY=             -3.1539   XZ=             -7.3425   YZ=             16.7835

 Normal termination of Gaussian 16 at Sun Nov 29 12:12:58 2020.
