 Gaussian 16, Revision C.01,
 Gaussian 16:  ES64L-G16RevC.01  3-Jul-2019

 -------------------------------------
 # opt=modredundant b3lyp/6-311+g(d,p)
 -------------------------------------

 -----------
 NDI_110.pdb
 -----------
 Symbolic Z-matrix:
 Charge =  0 Multiplicity = 1

 SCF Done:  E(RB3LYP) =  -2359.33167020     A.U. after   19 cycles
 SCF Done:  E(RB3LYP) =  -2359.33437518     A.U. after   15 cycles
 SCF Done:  E(RB3LYP) =  -2359.33465422     A.U. after   15 cycles
 SCF Done:  E(RB3LYP) =  -2359.33489840     A.U. after   14 cycles
 SCF Done:  E(RB3LYP) =  -2359.33495196     A.U. after   12 cycles
 SCF Done:  E(RB3LYP) =  -2359.33496090     A.U. after   12 cycles
 SCF Done:  E(RB3LYP) =  -2359.33496403     A.U. after   11 cycles
 SCF Done:  E(RB3LYP) =  -2359.33496485     A.U. after   11 cycles
 SCF Done:  E(RB3LYP) =  -2359.33496514     A.U. after   10 cycles
 SCF Done:  E(RB3LYP) =  -2359.33496532     A.U. after    9 cycles
 SCF Done:  E(RB3LYP) =  -2359.33496537     A.U. after   10 cycles
 Optimization completed.
    -- Stationary point found.

                         Standard orientation:
 ---------------------------------------------------------------------
 Center     Atomic      Atomic             Coordinates (Angstroms)
 Number     Number       Type             X           Y           Z
 ---------------------------------------------------------------------
      1          6           0        3.405512   -2.781276    0.281757
      2          6           0        2.706451   -1.486732    0.066622
      3          6           0        3.424432   -0.271748    0.120066
      4          6           0        4.812739   -0.265985    0.382158
      5          6           0        5.539524   -1.543098    0.618567
      6          6           0        1.350943   -1.473259   -0.172962
      7          6           0        2.734630    0.949890   -0.110501
      8          6           0        1.334314    0.946231   -0.364542
      9          6           0        0.631501   -0.266287   -0.366022
     10          6           0        0.674037    2.237178   -0.722185
     11          6           0        2.817590    3.459344   -0.345084
     12          6           0        3.477777    2.155471   -0.081532
     13          6           0        4.837009    2.138596    0.181830
     14          6           0        5.507695    0.929737    0.416537
     15          1           0        6.570776    0.912412    0.620436
     16          1           0        5.369458    3.081168    0.198470
     17          1           0        0.813401   -2.412876   -0.187584
     18          7           0        1.459809    3.403898   -0.667608
     19          7           0        4.778938   -2.721728    0.550456
     20          8           0        2.833358   -3.853750    0.232954
     21          8           0        6.731977   -1.572405    0.856626
     22          8           0        3.423570    4.514599   -0.298005
     23          8           0       -0.489667    2.327549   -1.055894
     24          6           0        0.766129    4.658334   -0.996002
     25          1           0        0.366779    4.604125   -2.008783
     26          1           0       -0.065228    4.810399   -0.307473
     27          1           0        1.484466    5.467363   -0.910683
     28          6           0        5.454749   -4.008786    0.771153
     29          1           0        4.985537   -4.530933    1.604984
     30          1           0        5.363910   -4.630384   -0.119995
     31          1           0        6.498654   -3.805072    0.987093
     32          6           0       -0.828805   -0.403418   -0.541258
     33          6           0       -1.486928   -0.924418   -1.624221
     34         16           0       -1.933144    0.041162    0.726405
     35          6           0       -2.895801   -0.945505   -1.447685
     36          1           0       -0.978032   -1.249198   -2.520453
     37          6           0       -3.324883   -0.465715   -0.218504
     38          8           0       -3.814415   -1.375571   -2.356470
     39          6           0       -4.674010   -0.392468    0.282966
     40          6           0       -3.338875   -1.985959   -3.550584
     41          6           0       -5.099342    0.083229    1.515316
     42         16           0       -6.068631   -0.925767   -0.646739
     43          1           0       -4.225229   -2.293491   -4.102889
     44          1           0       -2.763930   -1.276972   -4.155568
     45          1           0       -2.724676   -2.864832   -3.327956
     46          6           0       -6.507651    0.023756    1.710862
     47          8           0       -4.179236    0.546965    2.406606
     48          6           0       -7.153515   -0.498994    0.625716
     49          1           0       -7.016538    0.350165    2.606093
     50          6           0       -4.649458    1.061933    3.646597
     51          1           0       -8.213705   -0.656257    0.500427
     52          1           0       -5.170344    0.290469    4.223425
     53          1           0       -3.763997    1.383936    4.192101
     54          1           0       -5.313421    1.919035    3.492839
 ---------------------------------------------------------------------

 The electronic state is 1-A.
 Alpha  occ. eigenvalues --  -88.87695 -88.87580 -19.16359 -19.16328 -19.12762
 Alpha  occ. eigenvalues --  -19.12709 -19.12322 -19.12233 -14.38905 -14.38496
 Alpha  occ. eigenvalues --  -10.31383 -10.31187 -10.30949 -10.30930 -10.23874
 Alpha  occ. eigenvalues --  -10.23802 -10.23780 -10.23374 -10.23333 -10.23328
 Alpha  occ. eigenvalues --  -10.23228 -10.23112 -10.22757 -10.22705 -10.22661
 Alpha  occ. eigenvalues --  -10.21761 -10.21721 -10.21644 -10.21513 -10.21263
 Alpha  occ. eigenvalues --  -10.21140 -10.20913 -10.20909 -10.20089 -10.18472
 Alpha  occ. eigenvalues --  -10.18203  -7.96243  -7.96135  -5.92569  -5.92444
 Alpha  occ. eigenvalues --   -5.92178  -5.92056  -5.91779  -5.91704  -1.09001
 Alpha  occ. eigenvalues --   -1.08697  -1.07902  -1.07826  -1.07200  -1.06862
 Alpha  occ. eigenvalues --   -0.96565  -0.96122  -0.92915  -0.89790  -0.88297
 Alpha  occ. eigenvalues --   -0.86826  -0.84705  -0.80461  -0.78850  -0.77232
 Alpha  occ. eigenvalues --   -0.75960  -0.75470  -0.74655  -0.72899  -0.72627
 Alpha  occ. eigenvalues --   -0.71696  -0.69987  -0.68672  -0.67416  -0.66252
 Alpha  occ. eigenvalues --   -0.65755  -0.65003  -0.60805  -0.59569  -0.58590
 Alpha  occ. eigenvalues --   -0.57702  -0.56615  -0.55713  -0.55398  -0.54234
 Alpha  occ. eigenvalues --   -0.53899  -0.51992  -0.50494  -0.50115  -0.49939
 Alpha  occ. eigenvalues --   -0.49291  -0.48889  -0.48788  -0.48219  -0.47962
 Alpha  occ. eigenvalues --   -0.47665  -0.47516  -0.46865  -0.46564  -0.45602
 Alpha  occ. eigenvalues --   -0.45302  -0.45019  -0.44898  -0.44580  -0.44097
 Alpha  occ. eigenvalues --   -0.42967  -0.42674  -0.42300  -0.42090  -0.41718
 Alpha  occ. eigenvalues --   -0.41449  -0.41349  -0.41027  -0.40728  -0.40141
 Alpha  occ. eigenvalues --   -0.39816  -0.38872  -0.38262  -0.37838  -0.37092
 Alpha  occ. eigenvalues --   -0.35907  -0.35610  -0.33844  -0.33350  -0.33251
 Alpha  occ. eigenvalues --   -0.32941  -0.32588  -0.31275  -0.30361  -0.29943
 Alpha  occ. eigenvalues --   -0.29421  -0.29182  -0.28787  -0.28490  -0.27376
 Alpha  occ. eigenvalues --   -0.26573  -0.24318  -0.23902  -0.18771
 Alpha virt. eigenvalues --   -0.13426  -0.07173  -0.06175  -0.05021  -0.04255
 Alpha virt. eigenvalues --   -0.01026  -0.00212  -0.00116   0.00198   0.00599
 Alpha virt. eigenvalues --    0.00668   0.00933   0.01072   0.01188   0.01786

 Mulliken charges:
               1
     1  C    0.362242
     2  C    0.006055
     3  C    0.176047
     4  C    0.213704
     5  C    0.253537
     6  C   -0.506999
     7  C    0.206606
     8  C   -0.059548
     9  C    0.318550
    10  C   -0.284298
    11  C    0.264669
    12  C    0.160536
    13  C   -0.493645
    14  C   -0.633247
    15  H    0.161508
    16  H    0.162689
    17  H    0.163593
    18  N   -0.138466
    19  N   -0.143316
    20  O   -0.271070
    21  O   -0.270703
    22  O   -0.273690
    23  O   -0.147919
    24  C   -0.196595
    25  H    0.176796
    26  H    0.179430
    27  H    0.183650
    28  C   -0.199567
    29  H    0.175677
    30  H    0.174856
    31  H    0.182982
    32  C    0.434882
    33  C   -0.465430
    34  S   -0.293643
    35  C   -0.176366
    36  H    0.115349
    37  C    0.315287
    38  O   -0.130819
    39  C    0.829628
    40  C   -0.226944
    41  C    0.026011
    42  S   -0.285259
    43  H    0.164903
    44  H    0.145536
    45  H    0.149374
    46  C   -0.553080
    47  O   -0.145542
    48  C   -0.308225
    49  H    0.128933
    50  C   -0.235429
    51  H    0.157194
    52  H    0.142525
    53  H    0.162792
    54  H    0.144257
 Sum of Mulliken charges =  -0.00000

 Dipole moment (field-independent basis, Debye):
    X=             -1.8900    Y=             -0.2158    Z=              0.1181  Tot=              1.9060
 Quadrupole moment (field-independent basis, Debye-Ang):
   XX=           -219.7484   YY=           -231.1021   ZZ=           -200.4012
   XY=             -5.2599   XZ=            -10.7125   YZ=              9.9432

 Normal termination of Gaussian 16 at Sun Nov 29 13:00:58 2020.
