 Gaussian 16, Revision C.01,
 Gaussian 16:  ES64L-G16RevC.01  3-Jul-2019

 -------------------------------------
 # opt=modredundant b3lyp/6-311+g(d,p)
 -------------------------------------

 ----------
 NDI_40.pdb
 ----------
 Symbolic Z-matrix:
 Charge =  0 Multiplicity = 1

 SCF Done:  E(RB3LYP) =  -2359.33313103     A.U. after   17 cycles
 SCF Done:  E(RB3LYP) =  -2359.33113288     A.U. after   17 cycles
 SCF Done:  E(RB3LYP) =  -2359.33629251     A.U. after   13 cycles
 SCF Done:  E(RB3LYP) =  -2359.33719746     A.U. after   14 cycles
 SCF Done:  E(RB3LYP) =  -2359.33766811     A.U. after   16 cycles
 SCF Done:  E(RB3LYP) =  -2359.33788069     A.U. after   16 cycles
 SCF Done:  E(RB3LYP) =  -2359.33798735     A.U. after   13 cycles
 SCF Done:  E(RB3LYP) =  -2359.33802791     A.U. after   12 cycles
 SCF Done:  E(RB3LYP) =  -2359.33804017     A.U. after   11 cycles
 SCF Done:  E(RB3LYP) =  -2359.33804288     A.U. after   10 cycles
 SCF Done:  E(RB3LYP) =  -2359.33804394     A.U. after   11 cycles
 SCF Done:  E(RB3LYP) =  -2359.33804424     A.U. after   10 cycles
 SCF Done:  E(RB3LYP) =  -2359.33804433     A.U. after   10 cycles
 SCF Done:  E(RB3LYP) =  -2359.33804437     A.U. after    9 cycles
 Optimization completed.
    -- Stationary point found.

                         Standard orientation:
 ---------------------------------------------------------------------
 Center     Atomic      Atomic             Coordinates (Angstroms)
 Number     Number       Type             X           Y           Z
 ---------------------------------------------------------------------
      1          6           0       -2.591794   -2.974239    0.477252
      2          6           0       -2.270265   -1.536972    0.270933
      3          6           0       -3.303852   -0.587530    0.101417
      4          6           0       -4.654383   -0.991576    0.115864
      5          6           0       -5.012172   -2.421724    0.315515
      6          6           0       -0.960515   -1.137148    0.252039
      7          6           0       -2.952082    0.775524   -0.106136
      8          6           0       -1.583110    1.186200   -0.114605
      9          6           0       -0.562372    0.224984    0.095705
     10          6           0       -1.293692    2.604358   -0.459146
     11          6           0       -3.733121    3.121867   -0.592068
     12          6           0       -4.010632    1.695668   -0.314240
     13          6           0       -5.334305    1.280253   -0.287316
     14          6           0       -5.663747   -0.060488   -0.069925
     15          1           0       -6.694385   -0.390545   -0.054941
     16          1           0       -6.104719    2.023448   -0.449374
     17          1           0       -0.205345   -1.894599    0.415995
     18          7           0       -2.384464    3.465984   -0.685606
     19          7           0       -3.946534   -3.324239    0.470093
     20          8           0       -1.737254   -3.822343    0.656143
     21          8           0       -6.167816   -2.801103    0.341972
     22          8           0       -4.618523    3.945467   -0.747974
     23          8           0       -0.172178    3.068947   -0.568322
     24          6           0       -2.043510    4.855808   -1.021560
     25          1           0       -1.464878    5.303079   -0.212858
     26          1           0       -1.438073    4.877129   -1.927567
     27          1           0       -2.972349    5.397727   -1.167996
     28          6           0       -4.253122   -4.747457    0.672509
     29          1           0       -3.762821   -5.340680   -0.099360
     30          1           0       -3.880108   -5.071385    1.644629
     31          1           0       -5.330499   -4.867631    0.620272
     32          6           0        0.874551    0.467043    0.211693
     33          6           0        1.569940    1.475403    0.846138
     34         16           0        1.989033   -0.744770   -0.405649
     35          6           0        2.963236    1.282154    0.842001
     36          1           0        1.086089    2.325310    1.295849
     37          6           0        3.384908    0.124310    0.185589
     38          8           0        3.895791    2.115369    1.374210
     39          6           0        4.731699   -0.321031   -0.033431
     40          6           0        3.438523    3.235399    2.128006
     41          6           0        5.147923   -1.490566   -0.662416
     42         16           0        6.142276    0.593945    0.487305
     43          1           0        4.334664    3.743176    2.479973
     44          1           0        2.852981    3.917107    1.503424
     45          1           0        2.840100    2.912237    2.985910
     46          6           0        6.559288   -1.648221   -0.723726
     47          8           0        4.217091   -2.354184   -1.142429
     48          6           0        7.216000   -0.598583   -0.142929
     49          1           0        7.063325   -2.491937   -1.171774
     50          6           0        4.667906   -3.527432   -1.813918
     51          1           0        8.282163   -0.461693   -0.046241
     52          1           0        5.256345   -4.162555   -1.144195
     53          1           0        3.769011   -4.059388   -2.119671
     54          1           0        5.259866   -3.271061   -2.698219
 ---------------------------------------------------------------------

 The electronic state is 1-A.
 Alpha  occ. eigenvalues --  -88.88542 -88.88486 -19.17345 -19.16956 -19.12268
 Alpha  occ. eigenvalues --  -19.12234 -19.11550 -19.11518 -14.38442 -14.37941
 Alpha  occ. eigenvalues --  -10.30866 -10.30707 -10.30441 -10.30126 -10.25004
 Alpha  occ. eigenvalues --  -10.24674 -10.24013 -10.23769 -10.23634 -10.22742
 Alpha  occ. eigenvalues --  -10.22528 -10.22446 -10.22312 -10.22088 -10.22047
 Alpha  occ. eigenvalues --  -10.22033 -10.21910 -10.21750 -10.21242 -10.21179
 Alpha  occ. eigenvalues --  -10.20911 -10.20835 -10.20768 -10.20563 -10.19121
 Alpha  occ. eigenvalues --  -10.18915  -7.97093  -7.97051  -5.93403  -5.93369
 Alpha  occ. eigenvalues --   -5.93013  -5.92980  -5.92661  -5.92598  -1.08904
 Alpha  occ. eigenvalues --   -1.08525  -1.08524  -1.08057  -1.06707  -1.06133
 Alpha  occ. eigenvalues --   -0.96088  -0.95491  -0.92229  -0.90478  -0.88901
 Alpha  occ. eigenvalues --   -0.86510  -0.84037  -0.80426  -0.78266  -0.77767
 Alpha  occ. eigenvalues --   -0.76523  -0.75462  -0.75009  -0.73301  -0.72318
 Alpha  occ. eigenvalues --   -0.71766  -0.70446  -0.68841  -0.67000  -0.65695
 Alpha  occ. eigenvalues --   -0.65502  -0.64539  -0.61159  -0.59954  -0.58537
 Alpha  occ. eigenvalues --   -0.57283  -0.56756  -0.56516  -0.55205  -0.54927
 Alpha  occ. eigenvalues --   -0.53400  -0.51542  -0.50227  -0.49876  -0.49612
 Alpha  occ. eigenvalues --   -0.49318  -0.48928  -0.48619  -0.48482  -0.48387
 Alpha  occ. eigenvalues --   -0.48174  -0.46953  -0.46458  -0.46233  -0.45846
 Alpha  occ. eigenvalues --   -0.45692  -0.44854  -0.44370  -0.44090  -0.43515
 Alpha  occ. eigenvalues --   -0.42821  -0.42605  -0.42328  -0.41987  -0.41768
 Alpha  occ. eigenvalues --   -0.41714  -0.41119  -0.41034  -0.40385  -0.39783
 Alpha  occ. eigenvalues --   -0.39454  -0.39115  -0.39037  -0.37747  -0.37370
 Alpha  occ. eigenvalues --   -0.36536  -0.35841  -0.34455  -0.34094  -0.33745
 Alpha  occ. eigenvalues --   -0.33602  -0.31952  -0.30894  -0.30348  -0.29698
 Alpha  occ. eigenvalues --   -0.29202  -0.28728  -0.28564  -0.27933  -0.27231
 Alpha  occ. eigenvalues --   -0.26015  -0.24816  -0.24651  -0.19515
 Alpha virt. eigenvalues --   -0.12924  -0.07397  -0.06351  -0.04454  -0.03753
 Alpha virt. eigenvalues --   -0.00820  -0.00471  -0.00307   0.00015   0.00409
 Alpha virt. eigenvalues --    0.00817   0.01166   0.01486   0.01613   0.01851

 Mulliken charges:
               1
     1  C    0.272981
     2  C   -0.061934
     3  C    0.175919
     4  C    0.199786
     5  C    0.229452
     6  C   -0.310683
     7  C    0.215929
     8  C    0.348513
     9  C    0.468684
    10  C   -0.431974
    11  C    0.209036
    12  C    0.159737
    13  C   -0.483221
    14  C   -0.588887
    15  H    0.158362
    16  H    0.160876
    17  H    0.180993
    18  N   -0.142534
    19  N   -0.141412
    20  O   -0.280109
    21  O   -0.269386
    22  O   -0.277596
    23  O   -0.214293
    24  C   -0.199176
    25  H    0.169538
    26  H    0.176067
    27  H    0.182528
    28  C   -0.198205
    29  H    0.173284
    30  H    0.174423
    31  H    0.182273
    32  C    0.014199
    33  C   -0.534378
    34  S   -0.587853
    35  C   -0.174501
    36  H    0.143636
    37  C    0.751317
    38  O   -0.129342
    39  C    0.809454
    40  C   -0.233508
    41  C   -0.041152
    42  S   -0.253220
    43  H    0.165485
    44  H    0.156910
    45  H    0.147733
    46  C   -0.584738
    47  O   -0.130269
    48  C   -0.272684
    49  H    0.132514
    50  C   -0.241473
    51  H    0.161691
    52  H    0.145560
    53  H    0.169087
    54  H    0.146560
 Sum of Mulliken charges =  -0.00000

 Dipole moment (field-independent basis, Debye):
    X=              4.7622    Y=             -0.7173    Z=              0.2671  Tot=              4.8233
 Quadrupole moment (field-independent basis, Debye-Ang):
   XX=           -217.4634   YY=           -214.2266   ZZ=           -216.1731
   XY=             -4.4449   XZ=             -3.8213   YZ=             15.3213

 Normal termination of Gaussian 16 at Sun Nov 29 13:56:45 2020.
