 Gaussian 16, Revision C.01,
 Gaussian 16:  ES64L-G16RevC.01  3-Jul-2019

 -------------------------------------
 # opt=modredundant b3lyp/6-311+g(d,p)
 -------------------------------------

 ------------
 NDI_-120.pdb
 ------------
 Symbolic Z-matrix:
 Charge =  0 Multiplicity = 1

 SCF Done:  E(RB3LYP) =  -2359.32871658     A.U. after   17 cycles
 SCF Done:  E(RB3LYP) =  -2359.33296126     A.U. after   18 cycles
 SCF Done:  E(RB3LYP) =  -2359.33466425     A.U. after   15 cycles
 SCF Done:  E(RB3LYP) =  -2359.33509248     A.U. after   15 cycles
 SCF Done:  E(RB3LYP) =  -2359.33522059     A.U. after   14 cycles
 SCF Done:  E(RB3LYP) =  -2359.33531909     A.U. after   12 cycles
 SCF Done:  E(RB3LYP) =  -2359.33533868     A.U. after   12 cycles
 SCF Done:  E(RB3LYP) =  -2359.33534515     A.U. after   12 cycles
 SCF Done:  E(RB3LYP) =  -2359.33534660     A.U. after   11 cycles
 SCF Done:  E(RB3LYP) =  -2359.33534700     A.U. after   11 cycles
 SCF Done:  E(RB3LYP) =  -2359.33534713     A.U. after   10 cycles
 Optimization completed.
    -- Stationary point found.

                         Standard orientation:
 ---------------------------------------------------------------------
 Center     Atomic      Atomic             Coordinates (Angstroms)
 Number     Number       Type             X           Y           Z
 ---------------------------------------------------------------------
      1          6           0       -3.408668   -2.762664    0.380983
      2          6           0       -2.706951   -1.477106    0.125434
      3          6           0       -3.419954   -0.257492    0.151851
      4          6           0       -4.807255   -0.240431    0.415079
      5          6           0       -5.539125   -1.508908    0.679136
      6          6           0       -1.357084   -1.477822   -0.139068
      7          6           0       -2.726575    0.953646   -0.121164
      8          6           0       -1.326727    0.938817   -0.381362
      9          6           0       -0.629466   -0.279430   -0.362288
     10          6           0       -0.675549    2.208657   -0.816747
     11          6           0       -2.813777    3.449013   -0.469016
     12          6           0       -3.469413    2.159739   -0.136233
     13          6           0       -4.827841    2.155232    0.135063
     14          6           0       -5.500141    0.957787    0.414199
     15          1           0       -6.563083    0.949095    0.619090
     16          1           0       -5.358449    3.098821    0.116519
     17          1           0       -0.826021   -2.421183   -0.134420
     18          7           0       -1.464536    3.374741   -0.821297
     19          7           0       -4.785041   -2.693020    0.629859
     20          8           0       -2.834309   -3.835306    0.391364
     21          8           0       -6.730902   -1.528282    0.921905
     22          8           0       -3.416712    4.507349   -0.456313
     23          8           0        0.487530    2.287191   -1.158133
     24          6           0       -0.777926    4.610171   -1.226656
     25          1           0        0.056349    4.807261   -0.553063
     26          1           0       -0.384053    4.497296   -2.236638
     27          1           0       -1.499543    5.419780   -1.185255
     28          6           0       -5.465465   -3.971178    0.884769
     29          1           0       -5.324627   -4.636847    0.033284
     30          1           0       -5.038854   -4.446925    1.768306
     31          1           0       -6.519747   -3.763649    1.037382
     32          6           0        0.826972   -0.438178   -0.518728
     33          6           0        1.473220   -1.149505   -1.499657
     34         16           0        1.945996    0.176258    0.662928
     35          6           0        2.879533   -1.170784   -1.323709
     36          1           0        0.953972   -1.611008   -2.327484
     37          6           0        3.322058   -0.507838   -0.185563
     38          8           0        3.784922   -1.782592   -2.135772
     39          6           0        4.673127   -0.386617    0.297536
     40          6           0        3.314242   -2.352922   -3.351843
     41          6           0        5.113007    0.273602    1.437285
     42         16           0        6.053471   -1.091444   -0.534818
     43          1           0        4.194887   -2.740977   -3.860764
     44          1           0        2.615920   -3.174526   -3.160220
     45          1           0        2.832397   -1.597172   -3.980707
     46          6           0        6.520581    0.220072    1.637114
     47          8           0        4.207072    0.898261    2.238440
     48          6           0        7.151072   -0.484375    0.649844
     49          1           0        7.039866    0.677587    2.466528
     50          6           0        4.683630    1.538275    3.416746
     51          1           0        8.207552   -0.680673    0.550670
     52          1           0        5.381184    2.346435    3.173335
     53          1           0        3.805368    1.955086    3.906701
     54          1           0        5.168475    0.820987    4.087087
 ---------------------------------------------------------------------

 The electronic state is 1-A.
 Alpha  occ. eigenvalues --  -88.87806 -88.87796 -19.16576 -19.16513 -19.12637
 Alpha  occ. eigenvalues --  -19.12592 -19.12124 -19.12015 -14.38790 -14.38329
 Alpha  occ. eigenvalues --  -10.31253 -10.31071 -10.30763 -10.30729 -10.24087
 Alpha  occ. eigenvalues --  -10.24070 -10.23703 -10.23524 -10.23466 -10.23161
 Alpha  occ. eigenvalues --  -10.22982 -10.22927 -10.22577 -10.22556 -10.22438
 Alpha  occ. eigenvalues --  -10.21673 -10.21664 -10.21507 -10.21447 -10.21441
 Alpha  occ. eigenvalues --  -10.21174 -10.21133 -10.20792 -10.20334 -10.18678
 Alpha  occ. eigenvalues --  -10.18407  -7.96356  -7.96350  -5.92682  -5.92660
 Alpha  occ. eigenvalues --   -5.92289  -5.92271  -5.91919  -5.91891  -1.08879
 Alpha  occ. eigenvalues --   -1.08503  -1.08122  -1.08031  -1.07075  -1.06657
 Alpha  occ. eigenvalues --   -0.96441  -0.95945  -0.92745  -0.89937  -0.88421
 Alpha  occ. eigenvalues --   -0.86781  -0.84538  -0.80444  -0.78692  -0.77344
 Alpha  occ. eigenvalues --   -0.76114  -0.75347  -0.74853  -0.72919  -0.72629
 Alpha  occ. eigenvalues --   -0.71635  -0.70138  -0.68724  -0.67289  -0.66107
 Alpha  occ. eigenvalues --   -0.65648  -0.64935  -0.60821  -0.59669  -0.58599
 Alpha  occ. eigenvalues --   -0.57584  -0.56650  -0.55897  -0.55261  -0.54424
 Alpha  occ. eigenvalues --   -0.53841  -0.51870  -0.50377  -0.50001  -0.49820
 Alpha  occ. eigenvalues --   -0.49407  -0.48782  -0.48687  -0.48379  -0.48118
 Alpha  occ. eigenvalues --   -0.47812  -0.47352  -0.46736  -0.46481  -0.45694
 Alpha  occ. eigenvalues --   -0.45293  -0.45010  -0.44834  -0.44481  -0.44032
 Alpha  occ. eigenvalues --   -0.42859  -0.42548  -0.42210  -0.42118  -0.41716
 Alpha  occ. eigenvalues --   -0.41427  -0.41332  -0.41169  -0.40681  -0.40033
 Alpha  occ. eigenvalues --   -0.39660  -0.38864  -0.38518  -0.37795  -0.37162
 Alpha  occ. eigenvalues --   -0.36020  -0.35703  -0.33937  -0.33521  -0.33350
 Alpha  occ. eigenvalues --   -0.33240  -0.32402  -0.31148  -0.30211  -0.29880
 Alpha  occ. eigenvalues --   -0.29349  -0.29052  -0.28745  -0.28287  -0.27458
 Alpha  occ. eigenvalues --   -0.26393  -0.24476  -0.24017  -0.18934
 Alpha virt. eigenvalues --   -0.13298  -0.07105  -0.06239  -0.04921  -0.04123
 Alpha virt. eigenvalues --   -0.00960  -0.00305  -0.00204   0.00104   0.00615
 Alpha virt. eigenvalues --    0.00632   0.01005   0.01143   0.01295   0.01829

 Mulliken charges:
               1
     1  C    0.349521
     2  C   -0.027740
     3  C    0.166969
     4  C    0.269699
     5  C    0.269276
     6  C   -0.499498
     7  C    0.172923
     8  C    0.016770
     9  C    0.305651
    10  C   -0.245581
    11  C    0.268580
    12  C    0.178410
    13  C   -0.467068
    14  C   -0.681239
    15  H    0.161157
    16  H    0.162404
    17  H    0.167223
    18  N   -0.132480
    19  N   -0.140554
    20  O   -0.272786
    21  O   -0.270995
    22  O   -0.276407
    23  O   -0.171875
    24  C   -0.188118
    25  H    0.178809
    26  H    0.176875
    27  H    0.183234
    28  C   -0.199522
    29  H    0.174116
    30  H    0.175910
    31  H    0.182800
    32  C    0.368888
    33  C   -0.580130
    34  S   -0.380605
    35  C   -0.238540
    36  H    0.122373
    37  C    0.394894
    38  O   -0.115470
    39  C    0.947830
    40  C   -0.248843
    41  C   -0.022768
    42  S   -0.246433
    43  H    0.165898
    44  H    0.145985
    45  H    0.150982
    46  C   -0.516471
    47  O   -0.144261
    48  C   -0.292577
    49  H    0.129742
    50  C   -0.236949
    51  H    0.158375
    52  H    0.143671
    53  H    0.163809
    54  H    0.144137
 Sum of Mulliken charges =  -0.00000

 Dipole moment (field-independent basis, Debye):
    X=              2.5348    Y=             -0.2024    Z=              0.0106  Tot=              2.5429
 Quadrupole moment (field-independent basis, Debye-Ang):
   XX=           -218.3119   YY=           -229.5528   ZZ=           -202.5664
   XY=              7.1167   XZ=             10.5122   YZ=             12.6074

 Normal termination of Gaussian 16 at Sun Nov 29 12:16:41 2020.
