 Gaussian 16, Revision C.01,
 Gaussian 16:  ES64L-G16RevC.01  3-Jul-2019

 -------------------------------------
 # opt=modredundant b3lyp/6-311+g(d,p)
 -------------------------------------

 -----------
 NDI_105.pdb
 -----------
 Symbolic Z-matrix:
 Charge =  0 Multiplicity = 1

 SCF Done:  E(RB3LYP) =  -2359.33120260     A.U. after   18 cycles
 SCF Done:  E(RB3LYP) =  -2359.33379378     A.U. after   14 cycles
 SCF Done:  E(RB3LYP) =  -2359.33430775     A.U. after   16 cycles
 SCF Done:  E(RB3LYP) =  -2359.33457795     A.U. after   13 cycles
 SCF Done:  E(RB3LYP) =  -2359.33462633     A.U. after   14 cycles
 SCF Done:  E(RB3LYP) =  -2359.33464750     A.U. after   13 cycles
 SCF Done:  E(RB3LYP) =  -2359.33465262     A.U. after   13 cycles
 SCF Done:  E(RB3LYP) =  -2359.33465446     A.U. after   11 cycles
 SCF Done:  E(RB3LYP) =  -2359.33465491     A.U. after   11 cycles
 SCF Done:  E(RB3LYP) =  -2359.33465512     A.U. after    9 cycles
 SCF Done:  E(RB3LYP) =  -2359.33465518     A.U. after    9 cycles
 Optimization completed.
    -- Stationary point found.

                         Standard orientation:
 ---------------------------------------------------------------------
 Center     Atomic      Atomic             Coordinates (Angstroms)
 Number     Number       Type             X           Y           Z
 ---------------------------------------------------------------------
      1          6           0        3.377281   -2.802574    0.186306
      2          6           0        2.691536   -1.493880    0.017907
      3          6           0        3.423776   -0.289772    0.104258
      4          6           0        4.814188   -0.308118    0.356299
      5          6           0        5.528216   -1.600472    0.544985
      6          6           0        1.334541   -1.457084   -0.212745
      7          6           0        2.746415    0.946763   -0.078233
      8          6           0        1.344862    0.966787   -0.323715
      9          6           0        0.629683   -0.236521   -0.367291
     10          6           0        0.689778    2.280341   -0.603659
     11          6           0        2.852946    3.463134   -0.213527
     12          6           0        3.502220    2.142847   -0.009488
     13          6           0        4.862951    2.101946    0.241589
     14          6           0        5.522193    0.877893    0.426866
     15          1           0        6.586462    0.842056    0.622095
     16          1           0        5.405807    3.037498    0.289168
     17          1           0        0.785851   -2.389275   -0.257523
     18          7           0        1.488670    3.435598   -0.511309
     19          7           0        4.753290   -2.767315    0.446605
     20          8           0        2.792675   -3.866202    0.106029
     21          8           0        6.722350   -1.650640    0.770582
     22          8           0        3.472347    4.508671   -0.137544
     23          8           0       -0.479931    2.396944   -0.905477
     24          6           0        0.801805    4.710461   -0.767930
     25          1           0        0.382194    4.706848   -1.773944
     26          1           0       -0.014196    4.838335   -0.056554
     27          1           0        1.530067    5.507839   -0.660180
     28          6           0        5.415802   -4.068530    0.619837
     29          1           0        4.946389   -4.612428    1.439503
     30          1           0        5.311543   -4.659400   -0.290539
     31          1           0        6.463472   -3.883848    0.834618
     32          6           0       -0.832787   -0.349106   -0.559659
     33          6           0       -1.492883   -0.738958   -1.693702
     34         16           0       -1.933652   -0.043896    0.751124
     35          6           0       -2.902875   -0.772983   -1.518920
     36          1           0       -0.986093   -0.962915   -2.621398
     37          6           0       -3.329239   -0.431939   -0.244476
     38          8           0       -3.823366   -1.093973   -2.470450
     39          6           0       -4.678529   -0.403390    0.262907
     40          6           0       -3.350341   -1.566841   -3.726069
     41          6           0       -5.100558   -0.068101    1.541234
     42         16           0       -6.077035   -0.813187   -0.721690
     43          1           0       -4.237909   -1.805817   -4.309525
     44          1           0       -2.772064   -0.796457   -4.247046
     45          1           0       -2.740126   -2.468111   -3.605004
     46          6           0       -6.509697   -0.136482    1.728983
     47          8           0       -4.176875    0.282070    2.480278
     48          6           0       -7.159599   -0.525201    0.591335
     49          1           0       -7.016208    0.089786    2.655938
     50          6           0       -4.644141    0.655116    3.770902
     51          1           0       -8.221017   -0.657493    0.448942
     52          1           0       -5.172500   -0.172832    4.255313
     53          1           0       -3.756695    0.904598    4.350197
     54          1           0       -5.300576    1.529966    3.716643
 ---------------------------------------------------------------------

 The electronic state is 1-A.
 Alpha  occ. eigenvalues --  -88.87633 -88.87463 -19.16236 -19.16219 -19.12830
 Alpha  occ. eigenvalues --  -19.12774 -19.12428 -19.12348 -14.38967 -14.38591
 Alpha  occ. eigenvalues --  -10.31454 -10.31251 -10.31055 -10.31036 -10.23840
 Alpha  occ. eigenvalues --  -10.23750 -10.23656 -10.23427 -10.23364 -10.23286
 Alpha  occ. eigenvalues --  -10.23259 -10.23212 -10.22855 -10.22788 -10.22778
 Alpha  occ. eigenvalues --  -10.21834 -10.21812 -10.21749 -10.21427 -10.21312
 Alpha  occ. eigenvalues --  -10.20983 -10.20976 -10.20786 -10.19955 -10.18362
 Alpha  occ. eigenvalues --  -10.18089  -7.96179  -7.96017  -5.92505  -5.92327
 Alpha  occ. eigenvalues --   -5.92114  -5.91939  -5.91715  -5.91586  -1.09069
 Alpha  occ. eigenvalues --   -1.08806  -1.07781  -1.07706  -1.07270  -1.06975
 Alpha  occ. eigenvalues --   -0.96634  -0.96219  -0.93006  -0.89715  -0.88235
 Alpha  occ. eigenvalues --   -0.86838  -0.84794  -0.80477  -0.78935  -0.77168
 Alpha  occ. eigenvalues --   -0.75877  -0.75534  -0.74544  -0.72939  -0.72587
 Alpha  occ. eigenvalues --   -0.71721  -0.69901  -0.68641  -0.67484  -0.66332
 Alpha  occ. eigenvalues --   -0.65819  -0.65035  -0.60805  -0.59514  -0.58578
 Alpha  occ. eigenvalues --   -0.57768  -0.56587  -0.55619  -0.55464  -0.54135
 Alpha  occ. eigenvalues --   -0.53922  -0.52057  -0.50561  -0.50183  -0.50013
 Alpha  occ. eigenvalues --   -0.49210  -0.48957  -0.48836  -0.48134  -0.47879
 Alpha  occ. eigenvalues --   -0.47597  -0.47581  -0.46938  -0.46604  -0.45566
 Alpha  occ. eigenvalues --   -0.45323  -0.45050  -0.44894  -0.44611  -0.44114
 Alpha  occ. eigenvalues --   -0.43023  -0.42751  -0.42380  -0.42049  -0.41760
 Alpha  occ. eigenvalues --   -0.41497  -0.41283  -0.40994  -0.40711  -0.40201
 Alpha  occ. eigenvalues --   -0.39901  -0.38857  -0.38176  -0.37857  -0.37001
 Alpha  occ. eigenvalues --   -0.35853  -0.35566  -0.33756  -0.33260  -0.33168
 Alpha  occ. eigenvalues --   -0.32852  -0.32677  -0.31345  -0.30434  -0.29993
 Alpha  occ. eigenvalues --   -0.29474  -0.29253  -0.28805  -0.28608  -0.27308
 Alpha  occ. eigenvalues --   -0.26678  -0.24225  -0.23825  -0.18677
 Alpha virt. eigenvalues --   -0.13499  -0.07227  -0.06166  -0.05066  -0.04302
 Alpha virt. eigenvalues --   -0.01075  -0.00142  -0.00065   0.00237   0.00576
 Alpha virt. eigenvalues --    0.00646   0.00871   0.01072   0.01158   0.01755

 Mulliken charges:
               1
     1  C    0.374426
     2  C    0.029507
     3  C    0.184002
     4  C    0.213926
     5  C    0.263148
     6  C   -0.564754
     7  C    0.199686
     8  C   -0.070717
     9  C    0.362464
    10  C   -0.287770
    11  C    0.251327
    12  C    0.187953
    13  C   -0.515544
    14  C   -0.632926
    15  H    0.161882
    16  H    0.163026
    17  H    0.163531
    18  N   -0.147856
    19  N   -0.144712
    20  O   -0.269240
    21  O   -0.270158
    22  O   -0.271802
    23  O   -0.132518
    24  C   -0.203872
    25  H    0.176629
    26  H    0.179627
    27  H    0.183799
    28  C   -0.200366
    29  H    0.175838
    30  H    0.175183
    31  H    0.182961
    32  C    0.394592
    33  C   -0.462149
    34  S   -0.228430
    35  C   -0.162026
    36  H    0.112992
    37  C    0.272205
    38  O   -0.132588
    39  C    0.818811
    40  C   -0.226384
    41  C    0.035513
    42  S   -0.287212
    43  H    0.164727
    44  H    0.145358
    45  H    0.148720
    46  C   -0.546839
    47  O   -0.147670
    48  C   -0.315163
    49  H    0.128526
    50  C   -0.234991
    51  H    0.156697
    52  H    0.142260
    53  H    0.162369
    54  H    0.143999
 Sum of Mulliken charges =  -0.00000

 Dipole moment (field-independent basis, Debye):
    X=             -1.5362    Y=             -0.1467    Z=              0.0788  Tot=              1.5452
 Quadrupole moment (field-independent basis, Debye-Ang):
   XX=           -220.5336   YY=           -232.6435   ZZ=           -198.4812
   XY=             -4.3911   XZ=            -10.5582   YZ=              7.1675

 Normal termination of Gaussian 16 at Sun Nov 29 12:18:06 2020.
