 Gaussian 16, Revision C.01,
 Gaussian 16:  ES64L-G16RevC.01  3-Jul-2019

 -------------------------------------
 # opt=modredundant b3lyp/6-311+g(d,p)
 -------------------------------------

 ----------
 NDI_15.pdb
 ----------
 Symbolic Z-matrix:
 Charge =  0 Multiplicity = 1

 SCF Done:  E(RB3LYP) =  -2359.32129280     A.U. after   17 cycles
 SCF Done:  E(RB3LYP) =  -2359.31698754     A.U. after   17 cycles
 SCF Done:  E(RB3LYP) =  -2359.33250057     A.U. after   14 cycles
 SCF Done:  E(RB3LYP) =  -2359.33368756     A.U. after   16 cycles
 SCF Done:  E(RB3LYP) =  -2359.33500470     A.U. after   16 cycles
 SCF Done:  E(RB3LYP) =  -2359.33521185     A.U. after   14 cycles
 SCF Done:  E(RB3LYP) =  -2359.33540810     A.U. after   13 cycles
 SCF Done:  E(RB3LYP) =  -2359.33559190     A.U. after   14 cycles
 SCF Done:  E(RB3LYP) =  -2359.33591045     A.U. after   14 cycles
 SCF Done:  E(RB3LYP) =  -2359.33610901     A.U. after   14 cycles
 SCF Done:  E(RB3LYP) =  -2359.33619252     A.U. after   14 cycles
 SCF Done:  E(RB3LYP) =  -2359.33626155     A.U. after   13 cycles
 SCF Done:  E(RB3LYP) =  -2359.33627947     A.U. after   13 cycles
 SCF Done:  E(RB3LYP) =  -2359.33628510     A.U. after   11 cycles
 SCF Done:  E(RB3LYP) =  -2359.33628624     A.U. after   12 cycles
 SCF Done:  E(RB3LYP) =  -2359.33628650     A.U. after   11 cycles
 SCF Done:  E(RB3LYP) =  -2359.33628656     A.U. after    9 cycles
 Optimization completed.
    -- Stationary point found.

                         Standard orientation:
 ---------------------------------------------------------------------
 Center     Atomic      Atomic             Coordinates (Angstroms)
 Number     Number       Type             X           Y           Z
 ---------------------------------------------------------------------
      1          6           0       -2.436723   -3.024515    0.211083
      2          6           0       -2.192393   -1.561470    0.104852
      3          6           0       -3.272685   -0.649946    0.091092
      4          6           0       -4.598768   -1.116703    0.175046
      5          6           0       -4.881335   -2.573191    0.280642
      6          6           0       -0.907660   -1.103072    0.031017
      7          6           0       -2.985882    0.737376   -0.039423
      8          6           0       -1.635474    1.212733   -0.112594
      9          6           0       -0.555465    0.282743   -0.045551
     10          6           0       -1.452010    2.649877   -0.440917
     11          6           0       -3.907818    3.068845   -0.292955
     12          6           0       -4.096909    1.617688   -0.093772
     13          6           0       -5.397729    1.142180    0.009435
     14          6           0       -5.657865   -0.222344    0.145604
     15          1           0       -6.669951   -0.599192    0.214987
     16          1           0       -6.205359    1.861992   -0.031729
     17          1           0       -0.129715   -1.852886    0.085269
     18          7           0       -2.591134    3.474773   -0.502933
     19          7           0       -3.771721   -3.435949    0.273029
     20          8           0       -1.536216   -3.842667    0.259665
     21          8           0       -6.014655   -3.007460    0.365213
     22          8           0       -4.834649    3.861634   -0.300964
     23          8           0       -0.372044    3.175556   -0.660573
     24          6           0       -2.341654    4.892089   -0.801912
     25          1           0       -1.694068    5.325368   -0.039148
     26          1           0       -1.842656    4.983014   -1.766536
     27          1           0       -3.301091    5.399228   -0.816656
     28          6           0       -4.004558   -4.883336    0.377314
     29          1           0       -3.551030   -5.388971   -0.475179
     30          1           0       -3.545981   -5.267155    1.289225
     31          1           0       -5.077097   -5.048613    0.393595
     32          6           0        0.873704    0.545262    0.095587
     33          6           0        1.585538    1.673778    0.466943
     34         16           0        2.005699   -0.766931   -0.266257
     35          6           0        2.975657    1.485012    0.497243
     36          1           0        1.112918    2.606113    0.711725
     37          6           0        3.398101    0.210132    0.111184
     38          8           0        3.908127    2.415805    0.826149
     39          6           0        4.743408   -0.274812    0.010164
     40          6           0        3.452141    3.675448    1.316823
     41          6           0        5.161203   -1.550493   -0.361719
     42         16           0        6.152219    0.720905    0.361819
     43          1           0        4.349583    4.249232    1.540455
     44          1           0        2.859228    4.200091    0.561715
     45          1           0        2.860726    3.548197    2.228973
     46          6           0        6.571794   -1.722830   -0.362582
     47          8           0        4.233185   -2.487780   -0.674136
     48          6           0        7.225708   -0.579630    0.006827
     49          1           0        7.077384   -2.641394   -0.621714
     50          6           0        4.683854   -3.776553   -1.085238
     51          1           0        8.291287   -0.430205    0.091473
     52          1           0        5.254802   -4.265014   -0.289461
     53          1           0        3.784655   -4.353344   -1.292459
     54          1           0        5.292588   -3.708127   -1.992203
 ---------------------------------------------------------------------

 The electronic state is 1-A.
 Alpha  occ. eigenvalues --  -88.88872 -88.88641 -19.17656 -19.17172 -19.12137
 Alpha  occ. eigenvalues --  -19.12128 -19.11364 -19.11300 -14.38329 -14.37777
 Alpha  occ. eigenvalues --  -10.30726 -10.30594 -10.30326 -10.29853 -10.25417
 Alpha  occ. eigenvalues --  -10.24904 -10.24199 -10.23959 -10.23700 -10.22980
 Alpha  occ. eigenvalues --  -10.22578 -10.22480 -10.22282 -10.22238 -10.22046
 Alpha  occ. eigenvalues --  -10.21824 -10.21801 -10.21557 -10.21462 -10.21159
 Alpha  occ. eigenvalues --  -10.20830 -10.20551 -10.20474 -10.20460 -10.19430
 Alpha  occ. eigenvalues --  -10.18870  -7.97422  -7.97215  -5.93732  -5.93533
 Alpha  occ. eigenvalues --   -5.93342  -5.93140  -5.92990  -5.92758  -1.09239
 Alpha  occ. eigenvalues --   -1.08743  -1.08405  -1.07908  -1.06583  -1.05931
 Alpha  occ. eigenvalues --   -0.95971  -0.95322  -0.92037  -0.90694  -0.89094
 Alpha  occ. eigenvalues --   -0.86386  -0.83831  -0.80471  -0.78204  -0.77855
 Alpha  occ. eigenvalues --   -0.76696  -0.75649  -0.74884  -0.73519  -0.72214
 Alpha  occ. eigenvalues --   -0.71768  -0.70612  -0.68859  -0.66919  -0.65551
 Alpha  occ. eigenvalues --   -0.65454  -0.64406  -0.61313  -0.60111  -0.58528
 Alpha  occ. eigenvalues --   -0.57263  -0.56819  -0.56664  -0.55315  -0.54951
 Alpha  occ. eigenvalues --   -0.53306  -0.51435  -0.50360  -0.49820  -0.49494
 Alpha  occ. eigenvalues --   -0.49225  -0.49166  -0.48644  -0.48614  -0.48371
 Alpha  occ. eigenvalues --   -0.48163  -0.46990  -0.46460  -0.46132  -0.45955
 Alpha  occ. eigenvalues --   -0.45701  -0.44712  -0.44239  -0.43944  -0.43179
 Alpha  occ. eigenvalues --   -0.43034  -0.42689  -0.42401  -0.42004  -0.41863
 Alpha  occ. eigenvalues --   -0.41579  -0.41024  -0.40936  -0.40286  -0.39887
 Alpha  occ. eigenvalues --   -0.39329  -0.39231  -0.38926  -0.37811  -0.37338
 Alpha  occ. eigenvalues --   -0.36676  -0.36196  -0.34685  -0.34316  -0.33719
 Alpha  occ. eigenvalues --   -0.33571  -0.31786  -0.30781  -0.30420  -0.29611
 Alpha  occ. eigenvalues --   -0.29134  -0.28549  -0.28493  -0.27743  -0.27203
 Alpha  occ. eigenvalues --   -0.25988  -0.25003  -0.24878  -0.19757
 Alpha virt. eigenvalues --   -0.12768  -0.07835  -0.06259  -0.04237  -0.03596
 Alpha virt. eigenvalues --   -0.00836  -0.00445  -0.00319  -0.00072   0.00378
 Alpha virt. eigenvalues --    0.00884   0.01301   0.01432   0.01827   0.01958

 Mulliken charges:
               1
     1  C    0.259251
     2  C    0.053961
     3  C    0.255947
     4  C    0.237292
     5  C    0.239303
     6  C    0.209442
     7  C    0.263596
     8  C    0.335764
     9  C    0.210764
    10  C   -0.785038
    11  C    0.188299
    12  C    0.134874
    13  C   -0.479682
    14  C   -0.597432
    15  H    0.157621
    16  H    0.160971
    17  H    0.166467
    18  N   -0.132384
    19  N   -0.140615
    20  O   -0.286263
    21  O   -0.268396
    22  O   -0.280763
    23  O   -0.252431
    24  C   -0.169816
    25  H    0.168903
    26  H    0.177053
    27  H    0.182696
    28  C   -0.197708
    29  H    0.172488
    30  H    0.174030
    31  H    0.181748
    32  C   -0.163151
    33  C   -0.165768
    34  S   -0.670588
    35  C   -0.508733
    36  H    0.160038
    37  C    0.659836
    38  O   -0.126799
    39  C    0.938782
    40  C   -0.241310
    41  C    0.027537
    42  S   -0.234789
    43  H    0.166082
    44  H    0.160938
    45  H    0.148603
    46  C   -0.583861
    47  O   -0.127542
    48  C   -0.300416
    49  H    0.133821
    50  C   -0.241317
    51  H    0.163506
    52  H    0.146270
    53  H    0.172312
    54  H    0.146609
 Sum of Mulliken charges =  -0.00000

 Dipole moment (field-independent basis, Debye):
    X=              5.7341    Y=             -0.8210    Z=              0.2695  Tot=              5.7988
 Quadrupole moment (field-independent basis, Debye-Ang):
   XX=           -215.6868   YY=           -209.9509   ZZ=           -220.8738
   XY=             -4.8953   XZ=             -0.1862   YZ=             10.2538

 Normal termination of Gaussian 16 at Sun Nov 29 14:37:29 2020.
