 Gaussian 16, Revision C.01,
 Gaussian 16:  ES64L-G16RevC.01  3-Jul-2019

 -------------------------------------
 # opt=modredundant b3lyp/6-311+g(d,p)
 -------------------------------------

 -----------
 NDI_-70.pdb
 -----------
 Symbolic Z-matrix:
 Charge =  0 Multiplicity = 1

 SCF Done:  E(RB3LYP) =  -2359.33298888     A.U. after   19 cycles
 SCF Done:  E(RB3LYP) =  -2359.33532385     A.U. after   16 cycles
 SCF Done:  E(RB3LYP) =  -2359.33583510     A.U. after   14 cycles
 SCF Done:  E(RB3LYP) =  -2359.33585942     A.U. after   14 cycles
 SCF Done:  E(RB3LYP) =  -2359.33589175     A.U. after   12 cycles
 SCF Done:  E(RB3LYP) =  -2359.33589445     A.U. after   12 cycles
 SCF Done:  E(RB3LYP) =  -2359.33589639     A.U. after   11 cycles
 SCF Done:  E(RB3LYP) =  -2359.33589664     A.U. after   11 cycles
 SCF Done:  E(RB3LYP) =  -2359.33589676     A.U. after   11 cycles
 Optimization completed.
    -- Stationary point found.

                         Standard orientation:
 ---------------------------------------------------------------------
 Center     Atomic      Atomic             Coordinates (Angstroms)
 Number     Number       Type             X           Y           Z
 ---------------------------------------------------------------------
      1          6           0        2.855600   -2.899716    0.602540
      2          6           0        2.407178   -1.502918    0.358566
      3          6           0        3.350251   -0.490963    0.070696
      4          6           0        4.729043   -0.789086    0.008903
      5          6           0        5.212423   -2.173942    0.260484
      6          6           0        1.068856   -1.195870    0.429419
      7          6           0        2.889985    0.833045   -0.168960
      8          6           0        1.500095    1.135844   -0.097449
      9          6           0        0.583932    0.126503    0.242619
     10          6           0        1.059417    2.521075   -0.434418
     11          6           0        3.433215    3.218200   -0.777324
     12          6           0        3.850542    1.824972   -0.486063
     13          6           0        5.198799    1.511027   -0.541280
     14          6           0        5.643028    0.206069   -0.291247
     15          1           0        6.695508   -0.043550   -0.333632
     16          1           0        5.899713    2.299178   -0.785677
     17          1           0        0.368412   -1.985699    0.669066
     18          7           0        2.057894    3.461209   -0.753674
     19          7           0        4.233990   -3.140908    0.542533
     20          8           0        2.081801   -3.806923    0.843396
     21          8           0        6.393783   -2.461718    0.223627
     22          8           0        4.235606    4.098284   -1.033244
     23          8           0       -0.103276    2.874009   -0.463558
     24          6           0        1.582336    4.813594   -1.080491
     25          1           0        0.914318    4.770675   -1.940692
     26          1           0        1.029058    5.225607   -0.236317
     27          1           0        2.450669    5.426169   -1.300970
     28          6           0        4.663537   -4.524664    0.792123
     29          1           0        4.323423   -4.842016    1.777876
     30          1           0        4.224097   -5.187286    0.046038
     31          1           0        5.746917   -4.553548    0.734373
     32          6           0       -0.868964    0.314854    0.396810
     33          6           0       -1.542067    0.990432    1.382761
     34         16           0       -1.965565   -0.612639   -0.593035
     35          6           0       -2.943152    0.799188    1.323497
     36          1           0       -1.042674    1.610737    2.112089
     37          6           0       -3.365172   -0.039816    0.298680
     38          8           0       -3.867520    1.348727    2.157895
     39          6           0       -4.713722   -0.391104   -0.060436
     40          6           0       -3.421189    2.311621    3.107000
     41          6           0       -5.128196   -1.260870   -1.060845
     42         16           0       -6.124542    0.274102    0.753134
     43          1           0       -4.314920    2.660725    3.621306
     44          1           0       -2.737972    1.861548    3.835010
     45          1           0       -2.930246    3.154943    2.610891
     46          6           0       -6.540290   -1.391144   -1.173481
     47          8           0       -4.195071   -1.890548   -1.825863
     48          6           0       -7.199839   -0.619670   -0.257775
     49          1           0       -7.042372   -2.022778   -1.891685
     50          6           0       -4.647908   -2.801630   -2.821349
     51          1           0       -8.265811   -0.531107   -0.115068
     52          1           0       -5.264631   -2.293834   -3.570118
     53          1           0       -3.751097   -3.193969   -3.297602
     54          1           0       -5.212890   -3.626129   -2.374368
 ---------------------------------------------------------------------

 The electronic state is 1-A.
 Alpha  occ. eigenvalues --  -88.88073 -88.87852 -19.16643 -19.16481 -19.12609
 Alpha  occ. eigenvalues --  -19.12545 -19.12157 -19.12059 -14.38754 -14.38392
 Alpha  occ. eigenvalues --  -10.31225 -10.31024 -10.30860 -10.30754 -10.24144
 Alpha  occ. eigenvalues --  -10.24105 -10.23763 -10.23546 -10.23388 -10.23161
 Alpha  occ. eigenvalues --  -10.23004 -10.22892 -10.22561 -10.22523 -10.22419
 Alpha  occ. eigenvalues --  -10.21664 -10.21604 -10.21519 -10.21474 -10.21420
 Alpha  occ. eigenvalues --  -10.21205 -10.21142 -10.20881 -10.20402 -10.18572
 Alpha  occ. eigenvalues --  -10.18466  -7.96623  -7.96406  -5.92945  -5.92716
 Alpha  occ. eigenvalues --   -5.92554  -5.92327  -5.92167  -5.91974  -1.08848
 Alpha  occ. eigenvalues --   -1.08547  -1.08170  -1.08015  -1.07043  -1.06692
 Alpha  occ. eigenvalues --   -0.96412  -0.95977  -0.92728  -0.90009  -0.88467
 Alpha  occ. eigenvalues --   -0.86771  -0.84528  -0.80429  -0.78683  -0.77399
 Alpha  occ. eigenvalues --   -0.76127  -0.75357  -0.74907  -0.72935  -0.72534
 Alpha  occ. eigenvalues --   -0.71843  -0.70065  -0.68743  -0.67318  -0.66104
 Alpha  occ. eigenvalues --   -0.65708  -0.64843  -0.60923  -0.59647  -0.58605
 Alpha  occ. eigenvalues --   -0.57563  -0.56623  -0.55939  -0.55515  -0.54421
 Alpha  occ. eigenvalues --   -0.53668  -0.51872  -0.50380  -0.49985  -0.49883
 Alpha  occ. eigenvalues --   -0.49422  -0.48776  -0.48689  -0.48388  -0.48102
 Alpha  occ. eigenvalues --   -0.47864  -0.47297  -0.46742  -0.46454  -0.45723
 Alpha  occ. eigenvalues --   -0.45296  -0.45044  -0.44772  -0.44468  -0.43952
 Alpha  occ. eigenvalues --   -0.42769  -0.42657  -0.42229  -0.42179  -0.41806
 Alpha  occ. eigenvalues --   -0.41394  -0.41327  -0.41194  -0.40693  -0.39935
 Alpha  occ. eigenvalues --   -0.39751  -0.39088  -0.38567  -0.37707  -0.37239
 Alpha  occ. eigenvalues --   -0.36041  -0.35600  -0.34040  -0.33539  -0.33508
 Alpha  occ. eigenvalues --   -0.33160  -0.32425  -0.31185  -0.30387  -0.29857
 Alpha  occ. eigenvalues --   -0.29352  -0.29169  -0.28802  -0.28344  -0.27267
 Alpha  occ. eigenvalues --   -0.26373  -0.24406  -0.24250  -0.18984
 Alpha virt. eigenvalues --   -0.13283  -0.07100  -0.06237  -0.04919  -0.04235
 Alpha virt. eigenvalues --   -0.01003  -0.00247  -0.00204   0.00086   0.00616
 Alpha virt. eigenvalues --    0.00710   0.01004   0.01109   0.01295   0.01837

 Mulliken charges:
               1
     1  C    0.385635
     2  C   -0.040904
     3  C    0.111589
     4  C    0.215040
     5  C    0.230329
     6  C   -0.702099
     7  C    0.220427
     8  C    0.172910
     9  C    0.607301
    10  C   -0.381408
    11  C    0.329777
    12  C    0.108036
    13  C   -0.518224
    14  C   -0.639369
    15  H    0.160645
    16  H    0.162114
    17  H    0.178914
    18  N   -0.163050
    19  N   -0.146558
    20  O   -0.272414
    21  O   -0.269095
    22  O   -0.275344
    23  O   -0.123176
    24  C   -0.199661
    25  H    0.178801
    26  H    0.173690
    27  H    0.184008
    28  C   -0.197982
    29  H    0.175030
    30  H    0.175119
    31  H    0.182964
    32  C    0.118809
    33  C   -0.346595
    34  S   -0.408471
    35  C   -0.361245
    36  H    0.120015
    37  C    0.552091
    38  O   -0.126201
    39  C    0.882092
    40  C   -0.236640
    41  C   -0.014556
    42  S   -0.249019
    43  H    0.164862
    44  H    0.142985
    45  H    0.156735
    46  C   -0.497046
    47  O   -0.135727
    48  C   -0.288701
    49  H    0.130047
    50  C   -0.238628
    51  H    0.158810
    52  H    0.144610
    53  H    0.164545
    54  H    0.144181
 Sum of Mulliken charges =  -0.00000

 Dipole moment (field-independent basis, Debye):
    X=             -2.6632    Y=             -0.2594    Z=              0.1255  Tot=              2.6788
 Quadrupole moment (field-independent basis, Debye-Ang):
   XX=           -220.3026   YY=           -221.9921   ZZ=           -207.9009
   XY=              2.3880   XZ=              7.5429   YZ=             16.7210

 Normal termination of Gaussian 16 at Sun Nov 29 11:41:54 2020.
