 Gaussian 16, Revision C.01,
 Gaussian 16:  ES64L-G16RevC.01  3-Jul-2019

 -------------------------------------
 # opt=modredundant b3lyp/6-311+g(d,p)
 -------------------------------------

 ---------
 NDI_5.pdb
 ---------
 Symbolic Z-matrix:
 Charge =  0 Multiplicity = 1

 SCF Done:  E(RB3LYP) =  -2359.31914968     A.U. after   17 cycles
 SCF Done:  E(RB3LYP) =  -2359.31518484     A.U. after   18 cycles
 SCF Done:  E(RB3LYP) =  -2359.33209014     A.U. after   16 cycles
 SCF Done:  E(RB3LYP) =  -2359.33397702     A.U. after   16 cycles
 SCF Done:  E(RB3LYP) =  -2359.33423824     A.U. after   14 cycles
 SCF Done:  E(RB3LYP) =  -2359.33433824     A.U. after   12 cycles
 SCF Done:  E(RB3LYP) =  -2359.33438553     A.U. after   12 cycles
 SCF Done:  E(RB3LYP) =  -2359.33439249     A.U. after   11 cycles
 SCF Done:  E(RB3LYP) =  -2359.33439373     A.U. after   11 cycles
 SCF Done:  E(RB3LYP) =  -2359.33439537     A.U. after   10 cycles
 SCF Done:  E(RB3LYP) =  -2359.33439599     A.U. after   11 cycles
 SCF Done:  E(RB3LYP) =  -2359.33439642     A.U. after   11 cycles
 SCF Done:  E(RB3LYP) =  -2359.33439664     A.U. after   11 cycles
 SCF Done:  E(RB3LYP) =  -2359.33439683     A.U. after   11 cycles
 SCF Done:  E(RB3LYP) =  -2359.33439690     A.U. after   10 cycles
 SCF Done:  E(RB3LYP) =  -2359.33439690     A.U. after    8 cycles
 Optimization completed.
    -- Stationary point found.

                         Standard orientation:
 ---------------------------------------------------------------------
 Center     Atomic      Atomic             Coordinates (Angstroms)
 Number     Number       Type             X           Y           Z
 ---------------------------------------------------------------------
      1          6           0       -2.283548   -3.025855    0.231005
      2          6           0       -2.113861   -1.549992    0.159554
      3          6           0       -3.228526   -0.702549   -0.024980
      4          6           0       -4.517954   -1.248710   -0.169018
      5          6           0       -4.723291   -2.721462   -0.134592
      6          6           0       -0.862422   -1.019704    0.268408
      7          6           0       -3.009727    0.702931   -0.031993
      8          6           0       -1.689101    1.257602    0.096438
      9          6           0       -0.558152    0.380637    0.193893
     10          6           0       -1.614214    2.732291    0.235516
     11          6           0       -4.062335    2.990104   -0.164430
     12          6           0       -4.161502    1.518521   -0.183656
     13          6           0       -5.425937    0.964208   -0.340946
     14          6           0       -5.614910   -0.417325   -0.335610
     15          1           0       -6.598423   -0.853975   -0.449836
     16          1           0       -6.262285    1.641114   -0.460536
     17          1           0       -0.068492   -1.738986    0.413117
     18          7           0       -2.787122    3.493008    0.077732
     19          7           0       -3.582680   -3.516320    0.073016
     20          8           0       -1.352063   -3.790274    0.407322
     21          8           0       -5.822604   -3.224079   -0.272104
     22          8           0       -5.024141    3.722615   -0.327169
     23          8           0       -0.589934    3.357489    0.469558
     24          6           0       -2.627237    4.950376    0.186243
     25          1           0       -2.227419    5.207054    1.167110
     26          1           0       -1.929665    5.304844   -0.572834
     27          1           0       -3.605033    5.398796    0.042260
     28          6           0       -3.741539   -4.976285    0.128071
     29          1           0       -3.127736   -5.441772   -0.643251
     30          1           0       -3.413576   -5.346387    1.099868
     31          1           0       -4.790827   -5.203911   -0.030481
     32          6           0        0.878039    0.664856    0.148217
     33          6           0        1.632578    1.830301    0.088818
     34         16           0        1.986712   -0.726724    0.085622
     35          6           0        3.016273    1.619840    0.001300
     36          1           0        1.179793    2.801272    0.127620
     37          6           0        3.403837    0.279234   -0.011520
     38          8           0        3.970894    2.582740   -0.076552
     39          6           0        4.733405   -0.250007   -0.088366
     40          6           0        3.563629    3.943014    0.070318
     41          6           0        5.117454   -1.589383   -0.085518
     42         16           0        6.165694    0.768019   -0.200372
     43          1           0        4.478074    4.531867    0.028758
     44          1           0        2.896842    4.243352   -0.743353
     45          1           0        3.064723    4.100984    1.030863
     46          6           0        6.521617   -1.790759   -0.169494
     47          8           0        4.167735   -2.551572   -0.001619
     48          6           0        7.203526   -0.606832   -0.237661
     49          1           0        7.003120   -2.757495   -0.179253
     50          6           0        4.579285   -3.916656   -0.033138
     51          1           0        8.271554   -0.467293   -0.307577
     52          1           0        5.227070   -4.150820    0.817369
     53          1           0        3.665270   -4.503305    0.034025
     54          1           0        5.095716   -4.148625   -0.969745
 ---------------------------------------------------------------------

 The electronic state is 1-A.
 Alpha  occ. eigenvalues --  -88.88955 -88.88563 -19.17709 -19.17077 -19.12155
 Alpha  occ. eigenvalues --  -19.12150 -19.11579 -19.11221 -14.38352 -14.37804
 Alpha  occ. eigenvalues --  -10.30736 -10.30616 -10.30485 -10.29765 -10.25537
 Alpha  occ. eigenvalues --  -10.24785 -10.24303 -10.24206 -10.23544 -10.23026
 Alpha  occ. eigenvalues --  -10.22789 -10.22634 -10.22500 -10.22303 -10.21996
 Alpha  occ. eigenvalues --  -10.21774 -10.21766 -10.21668 -10.21419 -10.21143
 Alpha  occ. eigenvalues --  -10.20860 -10.20478 -10.20450 -10.20411 -10.19508
 Alpha  occ. eigenvalues --  -10.18441  -7.97505  -7.97145  -5.93814  -5.93467
 Alpha  occ. eigenvalues --   -5.93424  -5.93074  -5.93068  -5.92682  -1.09310
 Alpha  occ. eigenvalues --   -1.08632  -1.08429  -1.08036  -1.06603  -1.05966
 Alpha  occ. eigenvalues --   -0.96002  -0.95358  -0.92002  -0.90706  -0.89089
 Alpha  occ. eigenvalues --   -0.86363  -0.83812  -0.80483  -0.78213  -0.77873
 Alpha  occ. eigenvalues --   -0.76714  -0.75567  -0.74907  -0.73531  -0.72216
 Alpha  occ. eigenvalues --   -0.71778  -0.70630  -0.68826  -0.66991  -0.65579
 Alpha  occ. eigenvalues --   -0.65471  -0.64416  -0.61356  -0.60111  -0.58589
 Alpha  occ. eigenvalues --   -0.57282  -0.56850  -0.56643  -0.55411  -0.54886
 Alpha  occ. eigenvalues --   -0.53242  -0.51439  -0.50547  -0.49880  -0.49492
 Alpha  occ. eigenvalues --   -0.49311  -0.49198  -0.48609  -0.48490  -0.48456
 Alpha  occ. eigenvalues --   -0.48178  -0.47185  -0.46420  -0.46108  -0.45984
 Alpha  occ. eigenvalues --   -0.45733  -0.44791  -0.44220  -0.44007  -0.43170
 Alpha  occ. eigenvalues --   -0.42967  -0.42536  -0.42286  -0.42016  -0.41819
 Alpha  occ. eigenvalues --   -0.41591  -0.41188  -0.40990  -0.40285  -0.39749
 Alpha  occ. eigenvalues --   -0.39397  -0.39065  -0.38969  -0.37699  -0.37310
 Alpha  occ. eigenvalues --   -0.36604  -0.36311  -0.34730  -0.34387  -0.33597
 Alpha  occ. eigenvalues --   -0.33262  -0.31820  -0.30698  -0.30501  -0.29637
 Alpha  occ. eigenvalues --   -0.29182  -0.28568  -0.28529  -0.27581  -0.27360
 Alpha  occ. eigenvalues --   -0.26059  -0.25121  -0.24975  -0.19863
 Alpha virt. eigenvalues --   -0.12711  -0.08052  -0.06289  -0.04216  -0.03509
 Alpha virt. eigenvalues --   -0.00840  -0.00443  -0.00234  -0.00098   0.00393
 Alpha virt. eigenvalues --    0.00952   0.01316   0.01381   0.01859   0.01986

 Mulliken charges:
               1
     1  C    0.327783
     2  C    0.064889
     3  C    0.163624
     4  C    0.312526
     5  C    0.249151
     6  C    0.052411
     7  C    0.188165
     8  C    0.199593
     9  C    0.216968
    10  C   -0.363896
    11  C    0.209841
    12  C    0.200724
    13  C   -0.520987
    14  C   -0.685011
    15  H    0.157823
    16  H    0.161669
    17  H    0.168375
    18  N   -0.154428
    19  N   -0.137115
    20  O   -0.286160
    21  O   -0.272930
    22  O   -0.282330
    23  O   -0.272037
    24  C   -0.186163
    25  H    0.174089
    26  H    0.172251
    27  H    0.184180
    28  C   -0.194398
    29  H    0.173190
    30  H    0.173167
    31  H    0.182054
    32  C   -0.119975
    33  C    0.160136
    34  S   -0.724795
    35  C   -0.102823
    36  H    0.197475
    37  C    0.269679
    38  O   -0.152252
    39  C    0.738053
    40  C   -0.236639
    41  C   -0.109481
    42  S   -0.294596
    43  H    0.164902
    44  H    0.150776
    45  H    0.157426
    46  C   -0.571120
    47  O   -0.121504
    48  C   -0.308464
    49  H    0.133816
    50  C   -0.238772
    51  H    0.162954
    52  H    0.145955
    53  H    0.174826
    54  H    0.147401
 Sum of Mulliken charges =  -0.00000

 Dipole moment (field-independent basis, Debye):
    X=              5.9245    Y=             -0.8812    Z=             -0.0662  Tot=              5.9900
 Quadrupole moment (field-independent basis, Debye-Ang):
   XX=           -215.5134   YY=           -206.7545   ZZ=           -224.0709
   XY=             -5.0347   XZ=             -3.6114   YZ=              1.2531

 Normal termination of Gaussian 16 at Sun Nov 29 13:54:07 2020.
