 Gaussian 16, Revision C.01,
 Gaussian 16:  ES64L-G16RevC.01  3-Jul-2019

 -------------------------------------
 # opt=modredundant b3lyp/6-311+g(d,p)
 -------------------------------------

 -----------
 NDI_-75.pdb
 -----------
 Symbolic Z-matrix:
 Charge =  0 Multiplicity = 1

 SCF Done:  E(RB3LYP) =  -2359.33198225     A.U. after   19 cycles
 SCF Done:  E(RB3LYP) =  -2359.33480633     A.U. after   16 cycles
 SCF Done:  E(RB3LYP) =  -2359.33528428     A.U. after   14 cycles
 SCF Done:  E(RB3LYP) =  -2359.33530130     A.U. after   14 cycles
 SCF Done:  E(RB3LYP) =  -2359.33533978     A.U. after   12 cycles
 SCF Done:  E(RB3LYP) =  -2359.33534291     A.U. after   12 cycles
 SCF Done:  E(RB3LYP) =  -2359.33534493     A.U. after   12 cycles
 SCF Done:  E(RB3LYP) =  -2359.33534517     A.U. after   11 cycles
 SCF Done:  E(RB3LYP) =  -2359.33534528     A.U. after   10 cycles
 Optimization completed.
    -- Stationary point found.

                         Standard orientation:
 ---------------------------------------------------------------------
 Center     Atomic      Atomic             Coordinates (Angstroms)
 Number     Number       Type             X           Y           Z
 ---------------------------------------------------------------------
      1          6           0        2.934757   -2.885986    0.580100
      2          6           0        2.449941   -1.498644    0.352247
      3          6           0        3.364471   -0.463716    0.055574
      4          6           0        4.749141   -0.729130   -0.030327
      5          6           0        5.268552   -2.104078    0.204101
      6          6           0        1.105485   -1.222244    0.446015
      7          6           0        2.871442    0.851155   -0.167290
      8          6           0        1.476728    1.120821   -0.071313
      9          6           0        0.590545    0.089226    0.272393
     10          6           0        0.996724    2.499581   -0.384795
     11          6           0        3.347419    3.254824   -0.760430
     12          6           0        3.802796    1.868452   -0.490303
     13          6           0        5.156441    1.586356   -0.569551
     14          6           0        5.634154    0.289292   -0.337299
     15          1           0        6.691384    0.064654   -0.398263
     16          1           0        5.835635    2.392113   -0.817840
     17          1           0        0.424575   -2.028129    0.688898
     18          7           0        1.967587    3.466678   -0.707814
     19          7           0        4.317415   -3.094745    0.496312
     20          8           0        2.186180   -3.812270    0.827254
     21          8           0        6.455444   -2.363925    0.145563
     22          8           0        4.124801    4.154968   -1.022489
     23          8           0       -0.174222    2.822886   -0.389050
     24          6           0        1.455258    4.811682   -1.009128
     25          1           0        0.774277    4.763992   -1.858858
     26          1           0        0.906448    5.199222   -0.150612
     27          1           0        2.305141    5.447491   -1.235584
     28          6           0        4.782634   -4.469843    0.729762
     29          1           0        4.465864   -4.801072    1.718708
     30          1           0        4.346485   -5.137686   -0.013579
     31          1           0        5.865312   -4.473388    0.654473
     32          6           0       -0.866069    0.249410    0.449162
     33          6           0       -1.534478    0.823481    1.498499
     34         16           0       -1.961873   -0.570120   -0.628995
     35          6           0       -2.938163    0.641905    1.420326
     36          1           0       -1.032625    1.365109    2.286809
     37          6           0       -3.361394   -0.088852    0.318174
     38          8           0       -3.860614    1.106556    2.307570
     39          6           0       -4.710774   -0.406030   -0.072089
     40          6           0       -3.411290    1.965217    3.350022
     41          6           0       -5.126181   -1.168047   -1.155660
     42         16           0       -6.120453    0.166256    0.810701
     43          1           0       -4.303520    2.260406    3.899579
     44          1           0       -2.727223    1.441833    4.026484
     45          1           0       -2.920339    2.855233    2.943320
     46          6           0       -6.538511   -1.290660   -1.276856
     47          8           0       -4.193705   -1.711987   -1.985890
     48          6           0       -7.197409   -0.621042   -0.283990
     49          1           0       -7.041079   -1.845727   -2.055473
     50          6           0       -4.648309   -2.517394   -3.067418
     51          1           0       -8.263076   -0.550905   -0.129459
     52          1           0       -5.270173   -1.937877   -3.757684
     53          1           0       -3.752635   -2.855663   -3.585581
     54          1           0       -5.208799   -3.385557   -2.705323
 ---------------------------------------------------------------------

 The electronic state is 1-A.
 Alpha  occ. eigenvalues --  -88.87955 -88.87689 -19.16473 -19.16360 -19.12697
 Alpha  occ. eigenvalues --  -19.12629 -19.12297 -19.12201 -14.38836 -14.38504
 Alpha  occ. eigenvalues --  -10.31316 -10.31109 -10.30975 -10.30896 -10.23955
 Alpha  occ. eigenvalues --  -10.23941 -10.23805 -10.23431 -10.23322 -10.23275
 Alpha  occ. eigenvalues --  -10.23162 -10.23029 -10.22688 -10.22635 -10.22577
 Alpha  occ. eigenvalues --  -10.21695 -10.21626 -10.21576 -10.21567 -10.21286
 Alpha  occ. eigenvalues --  -10.21205 -10.21035 -10.20957 -10.20216 -10.18459
 Alpha  occ. eigenvalues --  -10.18309  -7.96501  -7.96243  -5.92825  -5.92553
 Alpha  occ. eigenvalues --   -5.92433  -5.92165  -5.92045  -5.91812  -1.08934
 Alpha  occ. eigenvalues --   -1.08677  -1.07997  -1.07884  -1.07131  -1.06832
 Alpha  occ. eigenvalues --   -0.96499  -0.96097  -0.92850  -0.89899  -0.88369
 Alpha  occ. eigenvalues --   -0.86813  -0.84646  -0.80446  -0.78795  -0.77308
 Alpha  occ. eigenvalues --   -0.76023  -0.75443  -0.74761  -0.72925  -0.72530
 Alpha  occ. eigenvalues --   -0.71857  -0.69974  -0.68707  -0.67401  -0.66207
 Alpha  occ. eigenvalues --   -0.65771  -0.64912  -0.60885  -0.59582  -0.58604
 Alpha  occ. eigenvalues --   -0.57651  -0.56580  -0.55798  -0.55588  -0.54289
 Alpha  occ. eigenvalues --   -0.53743  -0.51956  -0.50457  -0.50071  -0.49946
 Alpha  occ. eigenvalues --   -0.49353  -0.48856  -0.48752  -0.48268  -0.48004
 Alpha  occ. eigenvalues --   -0.47778  -0.47395  -0.46825  -0.46524  -0.45664
 Alpha  occ. eigenvalues --   -0.45292  -0.45005  -0.44865  -0.44541  -0.44014
 Alpha  occ. eigenvalues --   -0.42850  -0.42724  -0.42277  -0.42149  -0.41797
 Alpha  occ. eigenvalues --   -0.41422  -0.41353  -0.41076  -0.40754  -0.40043
 Alpha  occ. eigenvalues --   -0.39825  -0.39008  -0.38472  -0.37756  -0.37112
 Alpha  occ. eigenvalues --   -0.35926  -0.35598  -0.33926  -0.33417  -0.33373
 Alpha  occ. eigenvalues --   -0.33054  -0.32542  -0.31264  -0.30433  -0.29912
 Alpha  occ. eigenvalues --   -0.29385  -0.29264  -0.28856  -0.28459  -0.27241
 Alpha  occ. eigenvalues --   -0.26495  -0.24327  -0.24108  -0.18854
 Alpha virt. eigenvalues --   -0.13374  -0.07146  -0.06174  -0.04994  -0.04330
 Alpha virt. eigenvalues --   -0.01048  -0.00185  -0.00130   0.00106   0.00575
 Alpha virt. eigenvalues --    0.00769   0.00966   0.01008   0.01223   0.01814

 Mulliken charges:
               1
     1  C    0.389283
     2  C   -0.014225
     3  C    0.131162
     4  C    0.197011
     5  C    0.236790
     6  C   -0.700773
     7  C    0.219433
     8  C    0.155511
     9  C    0.629061
    10  C   -0.408257
    11  C    0.316206
    12  C    0.110200
    13  C   -0.517220
    14  C   -0.634992
    15  H    0.161075
    16  H    0.162333
    17  H    0.175023
    18  N   -0.164166
    19  N   -0.147370
    20  O   -0.270746
    21  O   -0.269034
    22  O   -0.273666
    23  O   -0.102160
    24  C   -0.202814
    25  H    0.179207
    26  H    0.174516
    27  H    0.184153
    28  C   -0.197956
    29  H    0.175214
    30  H    0.175503
    31  H    0.183091
    32  C    0.145974
    33  C   -0.453250
    34  S   -0.344814
    35  C   -0.356265
    36  H    0.115881
    37  C    0.518162
    38  O   -0.127919
    39  C    0.904095
    40  C   -0.234504
    41  C    0.004786
    42  S   -0.252946
    43  H    0.164727
    44  H    0.142693
    45  H    0.155385
    46  C   -0.501083
    47  O   -0.138304
    48  C   -0.295277
    49  H    0.129488
    50  C   -0.237927
    51  H    0.158120
    52  H    0.144308
    53  H    0.163735
    54  H    0.143539
 Sum of Mulliken charges =  -0.00000

 Dipole moment (field-independent basis, Debye):
    X=             -2.1727    Y=             -0.1634    Z=              0.0996  Tot=              2.1811
 Quadrupole moment (field-independent basis, Debye-Ang):
   XX=           -220.9245   YY=           -224.5751   ZZ=           -205.2585
   XY=              1.7248   XZ=              8.1197   YZ=             15.8216

 Normal termination of Gaussian 16 at Sun Nov 29 11:26:26 2020.
