 Gaussian 16, Revision C.01,
 Gaussian 16:  ES64L-G16RevC.01  3-Jul-2019

 -------------------------------------
 # opt=modredundant b3lyp/6-311+g(d,p)
 -------------------------------------

 ----------
 NDI_90.pdb
 ----------
 Symbolic Z-matrix:
 Charge =  0 Multiplicity = 1

 SCF Done:  E(RB3LYP) =  -2359.32970034     A.U. after   21 cycles
 SCF Done:  E(RB3LYP) =  -2359.33301604     A.U. after   15 cycles
 SCF Done:  E(RB3LYP) =  -2359.33384188     A.U. after   15 cycles
 SCF Done:  E(RB3LYP) =  -2359.33401382     A.U. after   15 cycles
 SCF Done:  E(RB3LYP) =  -2359.33413560     A.U. after   13 cycles
 SCF Done:  E(RB3LYP) =  -2359.33416301     A.U. after   13 cycles
 SCF Done:  E(RB3LYP) =  -2359.33417714     A.U. after   13 cycles
 SCF Done:  E(RB3LYP) =  -2359.33418005     A.U. after   12 cycles
 SCF Done:  E(RB3LYP) =  -2359.33418185     A.U. after   10 cycles
 SCF Done:  E(RB3LYP) =  -2359.33418243     A.U. after   10 cycles
 SCF Done:  E(RB3LYP) =  -2359.33418259     A.U. after    9 cycles
 SCF Done:  E(RB3LYP) =  -2359.33418262     A.U. after    8 cycles
 Optimization completed.
    -- Stationary point found.

                         Standard orientation:
 ---------------------------------------------------------------------
 Center     Atomic      Atomic             Coordinates (Angstroms)
 Number     Number       Type             X           Y           Z
 ---------------------------------------------------------------------
      1          6           0       -3.191493   -2.858899    0.285398
      2          6           0       -2.590475   -1.499680    0.224999
      3          6           0       -3.403618   -0.371882   -0.018246
      4          6           0       -4.795789   -0.516210   -0.216770
      5          6           0       -5.427527   -1.863555   -0.171772
      6          6           0       -1.233762   -1.342559    0.402241
      7          6           0       -2.804703    0.916342   -0.067110
      8          6           0       -1.402944    1.061890    0.130385
      9          6           0       -0.613358   -0.068359    0.367709
     10          6           0       -0.812017    2.434640    0.070850
     11          6           0       -3.064678    3.404103   -0.395389
     12          6           0       -3.636086    2.034674   -0.321389
     13          6           0       -4.996923    1.870618   -0.512302
     14          6           0       -5.580500    0.595833   -0.459838
     15          1           0       -6.644440    0.463548   -0.610378
     16          1           0       -5.599328    2.749216   -0.705591
     17          1           0       -0.624215   -2.219085    0.581918
     18          7           0       -1.685182    3.504584   -0.200858
     19          7           0       -4.573282   -2.950417    0.072563
     20          8           0       -2.535704   -3.857759    0.511158
     21          8           0       -6.622049   -2.021118   -0.337603
     22          8           0       -3.754882    4.382898   -0.613475
     23          8           0        0.366270    2.666761    0.242994
     24          6           0       -1.064397    4.836566   -0.262601
     25          1           0       -0.585882    5.065182    0.689798
     26          1           0       -0.302107    4.850634   -1.041540
     27          1           0       -1.845813    5.557714   -0.479576
     28          6           0       -5.151704   -4.301166    0.129526
     29          1           0       -4.667988   -4.937920   -0.611095
     30          1           0       -4.984820   -4.732577    1.116865
     31          1           0       -6.214554   -4.218232   -0.073753
     32          6           0        0.852642   -0.045008    0.587826
     33          6           0        1.520235    0.078223    1.774316
     34         16           0        1.941938   -0.337745   -0.735335
     35          6           0        2.929647   -0.037809    1.621312
     36          1           0        1.020812    0.264649    2.714044
     37          6           0        3.347173   -0.267244    0.320824
     38          8           0        3.856746    0.071117    2.614296
     39          6           0        4.695100   -0.424890   -0.168290
     40          6           0        3.392055    0.183519    3.953842
     41          6           0        5.105080   -0.677251   -1.468795
     42         16           0        6.106783   -0.311067    0.873989
     43          1           0        4.283440    0.214328    4.578259
     44          1           0        2.817551    1.104648    4.098319
     45          1           0        2.780756   -0.680786    4.234505
     46          6           0        6.515924   -0.777389   -1.628864
     47          8           0        4.169140   -0.808450   -2.451973
     48          6           0        7.179341   -0.600441   -0.447303
     49          1           0        7.013977   -0.970705   -2.567816
     50          6           0        4.623437   -1.029313   -3.781381
     51          1           0        8.244508   -0.626033   -0.276714
     52          1           0        5.180703   -1.968944   -3.858908
     53          1           0        3.728066   -1.089612   -4.397959
     54          1           0        5.248911   -0.200293   -4.129021
 ---------------------------------------------------------------------

 The electronic state is 1-A.
 Alpha  occ. eigenvalues --  -88.87625 -88.87304 -19.16072 -19.16051 -19.12927
 Alpha  occ. eigenvalues --  -19.12859 -19.12595 -19.12520 -14.39054 -14.38747
 Alpha  occ. eigenvalues --  -10.31554 -10.31336 -10.31235 -10.31201 -10.23949
 Alpha  occ. eigenvalues --  -10.23587 -10.23574 -10.23539 -10.23459 -10.23352
 Alpha  occ. eigenvalues --  -10.23164 -10.23145 -10.22995 -10.22945 -10.22907
 Alpha  occ. eigenvalues --  -10.21990 -10.21900 -10.21893 -10.21378 -10.21321
 Alpha  occ. eigenvalues --  -10.21106 -10.20757 -10.20623 -10.19774 -10.18185
 Alpha  occ. eigenvalues --  -10.17936  -7.96166  -7.95859  -5.92492  -5.92169
 Alpha  occ. eigenvalues --   -5.92100  -5.91781  -5.91706  -5.91428  -1.09165
 Alpha  occ. eigenvalues --   -1.08978  -1.07608  -1.07533  -1.07367  -1.07150
 Alpha  occ. eigenvalues --   -0.96731  -0.96369  -0.93139  -0.89641  -0.88165
 Alpha  occ. eigenvalues --   -0.86845  -0.84923  -0.80509  -0.79062  -0.77084
 Alpha  occ. eigenvalues --   -0.75789  -0.75609  -0.74398  -0.73032  -0.72492
 Alpha  occ. eigenvalues --   -0.71789  -0.69771  -0.68611  -0.67586  -0.66451
 Alpha  occ. eigenvalues --   -0.65931  -0.65062  -0.60831  -0.59435  -0.58560
 Alpha  occ. eigenvalues --   -0.57863  -0.56522  -0.55689  -0.55441  -0.53998
 Alpha  occ. eigenvalues --   -0.53915  -0.52150  -0.50661  -0.50286  -0.50135
 Alpha  occ. eigenvalues --   -0.49108  -0.49063  -0.48884  -0.48040  -0.47814
 Alpha  occ. eigenvalues --   -0.47657  -0.47457  -0.47038  -0.46659  -0.45564
 Alpha  occ. eigenvalues --   -0.45355  -0.45110  -0.44890  -0.44618  -0.44102
 Alpha  occ. eigenvalues --   -0.43093  -0.42883  -0.42509  -0.42020  -0.41839
 Alpha  occ. eigenvalues --   -0.41569  -0.41181  -0.40998  -0.40650  -0.40285
 Alpha  occ. eigenvalues --   -0.40033  -0.38873  -0.38134  -0.37837  -0.36841
 Alpha  occ. eigenvalues --   -0.35823  -0.35475  -0.33602  -0.33220  -0.33045
 Alpha  occ. eigenvalues --   -0.32779  -0.32723  -0.31460  -0.30577  -0.30073
 Alpha  occ. eigenvalues --   -0.29558  -0.29393  -0.28902  -0.28776  -0.27123
 Alpha  occ. eigenvalues --   -0.26846  -0.24089  -0.23748  -0.18547
 Alpha virt. eigenvalues --   -0.13601  -0.07317  -0.06185  -0.05132  -0.04367
 Alpha virt. eigenvalues --   -0.01146  -0.00010   0.00024   0.00247   0.00480
 Alpha virt. eigenvalues --    0.00659   0.00759   0.01040   0.01172   0.01704

 Mulliken charges:
               1
     1  C    0.401142
     2  C    0.034035
     3  C    0.225951
     4  C    0.198892
     5  C    0.270358
     6  C   -0.647397
     7  C    0.185775
     8  C   -0.003585
     9  C    0.549416
    10  C   -0.408698
    11  C    0.201256
    12  C    0.203828
    13  C   -0.516134
    14  C   -0.623790
    15  H    0.162270
    16  H    0.163241
    17  H    0.167302
    18  N   -0.166865
    19  N   -0.147576
    20  O   -0.267043
    21  O   -0.268683
    22  O   -0.268159
    23  O   -0.089421
    24  C   -0.214821
    25  H    0.176155
    26  H    0.179137
    27  H    0.184028
    28  C   -0.200759
    29  H    0.175828
    30  H    0.175965
    31  H    0.182815
    32  C    0.159920
    33  C   -0.460873
    34  S   -0.109540
    35  C   -0.085802
    36  H    0.110483
    37  C    0.251020
    38  O   -0.139371
    39  C    0.784608
    40  C   -0.224387
    41  C    0.043899
    42  S   -0.284741
    43  H    0.164578
    44  H    0.145485
    45  H    0.146822
    46  C   -0.534012
    47  O   -0.150932
    48  C   -0.327533
    49  H    0.127996
    50  C   -0.235984
    51  H    0.156110
    52  H    0.141548
    53  H    0.161994
    54  H    0.144250
 Sum of Mulliken charges =  -0.00000

 Dipole moment (field-independent basis, Debye):
    X=              1.0204    Y=             -0.0946    Z=             -0.0115  Tot=              1.0248
 Quadrupole moment (field-independent basis, Debye-Ang):
   XX=           -222.2019   YY=           -232.9361   ZZ=           -197.0448
   XY=              0.7744   XZ=             -9.7397   YZ=              5.8973

 Normal termination of Gaussian 16 at Sun Nov 29 12:35:57 2020.
