 Gaussian 16, Revision C.01,
 Gaussian 16:  ES64L-G16RevC.01  3-Jul-2019

 -------------------------------------
 # opt=modredundant b3lyp/6-311+g(d,p)
 -------------------------------------

 -----------
 NDI_115.pdb
 -----------
 Symbolic Z-matrix:
 Charge =  0 Multiplicity = 1

 SCF Done:  E(RB3LYP) =  -2359.33187110     A.U. after   19 cycles
 SCF Done:  E(RB3LYP) =  -2359.33475542     A.U. after   17 cycles
 SCF Done:  E(RB3LYP) =  -2359.33499266     A.U. after   14 cycles
 SCF Done:  E(RB3LYP) =  -2359.33525328     A.U. after   15 cycles
 SCF Done:  E(RB3LYP) =  -2359.33532310     A.U. after   13 cycles
 SCF Done:  E(RB3LYP) =  -2359.33533526     A.U. after   13 cycles
 SCF Done:  E(RB3LYP) =  -2359.33533700     A.U. after   12 cycles
 SCF Done:  E(RB3LYP) =  -2359.33533818     A.U. after   11 cycles
 SCF Done:  E(RB3LYP) =  -2359.33533828     A.U. after   11 cycles
 SCF Done:  E(RB3LYP) =  -2359.33533845     A.U. after   10 cycles
 SCF Done:  E(RB3LYP) =  -2359.33533848     A.U. after   10 cycles
 SCF Done:  E(RB3LYP) =  -2359.33533850     A.U. after    9 cycles
 Optimization completed.
    -- Stationary point found.

                         Standard orientation:
 ---------------------------------------------------------------------
 Center     Atomic      Atomic             Coordinates (Angstroms)
 Number     Number       Type             X           Y           Z
 ---------------------------------------------------------------------
      1          6           0        3.423814   -2.763303    0.347562
      2          6           0        2.715872   -1.479668    0.099560
      3          6           0        3.423617   -0.257488    0.131791
      4          6           0        4.809598   -0.234499    0.403002
      5          6           0        5.544779   -1.499875    0.673162
      6          6           0        1.362125   -1.482951   -0.147613
      7          6           0        2.725489    0.952428   -0.133474
      8          6           0        1.326548    0.932003   -0.395316
      9          6           0        0.632146   -0.286312   -0.367579
     10          6           0        0.665656    2.203593   -0.812768
     11          6           0        2.793403    3.454168   -0.439167
     12          6           0        3.459956    2.163644   -0.131643
     13          6           0        4.817438    2.164131    0.142787
     14          6           0        5.495453    0.967363    0.413313
     15          1           0        6.557128    0.963294    0.624956
     16          1           0        5.342492    3.110982    0.138390
     17          1           0        0.832749   -2.427288   -0.141275
     18          7           0        1.442088    3.377586   -0.783654
     19          7           0        4.794736   -2.686427    0.623773
     20          8           0        2.860548   -3.841413    0.319762
     21          8           0        6.735450   -1.514298    0.921487
     22          8           0        3.389586    4.515860   -0.411286
     23          8           0       -0.491569    2.273848   -1.174008
     24          6           0        0.745971    4.614794   -1.167141
     25          1           0        0.365836    4.523210   -2.184615
     26          1           0       -0.099129    4.783999   -0.499611
     27          1           0        1.456986    5.431653   -1.096116
     28          6           0        5.479603   -3.962532    0.877368
     29          1           0        5.009271   -4.470110    1.719545
     30          1           0        5.399813   -4.604420   -0.000359
     31          1           0        6.520345   -3.745333    1.095450
     32          6           0       -0.825892   -0.441205   -0.526463
     33          6           0       -1.481250   -1.075468   -1.550963
     34         16           0       -1.934538    0.118292    0.691424
     35          6           0       -2.888705   -1.089527   -1.372706
     36          1           0       -0.969639   -1.485539   -2.409961
     37          6           0       -3.321347   -0.492721   -0.195906
     38          8           0       -3.804457   -1.615023   -2.232321
     39          6           0       -4.670417   -0.383156    0.297101
     40          6           0       -3.324767   -2.337393   -3.360738
     41          6           0       -5.099721    0.209615    1.476717
     42         16           0       -6.060699   -1.018677   -0.573271
     43          1           0       -4.208963   -2.705541   -3.878257
     44          1           0       -2.756174   -1.687268   -4.033937
     45          1           0       -2.703097   -3.184567   -3.052558
     46          6           0       -6.507321    0.158362    1.678266
     47          8           0       -4.183756    0.767396    2.315931
     48          6           0       -7.148563   -0.475818    0.651221
     49          1           0       -7.018992    0.568365    2.536766
     50          6           0       -4.657815    1.401091    3.498434
     51          1           0       -8.207426   -0.653719    0.543361
     52          1           0       -5.172124    0.687369    4.150501
     53          1           0       -3.774768    1.783532    4.007531
     54          1           0       -5.328722    2.232828    3.259541
 ---------------------------------------------------------------------

 The electronic state is 1-A.
 Alpha  occ. eigenvalues --  -88.87767 -88.87705 -19.16488 -19.16439 -19.12693
 Alpha  occ. eigenvalues --  -19.12645 -19.12214 -19.12114 -14.38841 -14.38399
 Alpha  occ. eigenvalues --  -10.31311 -10.31123 -10.30842 -10.30821 -10.24001
 Alpha  occ. eigenvalues --  -10.23955 -10.23724 -10.23465 -10.23409 -10.23229
 Alpha  occ. eigenvalues --  -10.23085 -10.23007 -10.22657 -10.22621 -10.22539
 Alpha  occ. eigenvalues --  -10.21710 -10.21604 -10.21603 -10.21534 -10.21315
 Alpha  occ. eigenvalues --  -10.21214 -10.21039 -10.20843 -10.20229 -10.18587
 Alpha  occ. eigenvalues --  -10.18322  -7.96317  -7.96259  -5.92643  -5.92569
 Alpha  occ. eigenvalues --   -5.92251  -5.92180  -5.91852  -5.91827  -1.08932
 Alpha  occ. eigenvalues --   -1.08586  -1.08030  -1.07949  -1.07130  -1.06747
 Alpha  occ. eigenvalues --   -0.96495  -0.96022  -0.92821  -0.89874  -0.88367
 Alpha  occ. eigenvalues --   -0.86806  -0.84612  -0.80450  -0.78762  -0.77299
 Alpha  occ. eigenvalues --   -0.76049  -0.75400  -0.74770  -0.72894  -0.72644
 Alpha  occ. eigenvalues --   -0.71665  -0.70077  -0.68705  -0.67345  -0.66169
 Alpha  occ. eigenvalues --   -0.65693  -0.64967  -0.60814  -0.59628  -0.58597
 Alpha  occ. eigenvalues --   -0.57636  -0.56642  -0.55821  -0.55324  -0.54342
 Alpha  occ. eigenvalues --   -0.53870  -0.51924  -0.50428  -0.50047  -0.49870
 Alpha  occ. eigenvalues --   -0.49365  -0.48826  -0.48733  -0.48312  -0.48054
 Alpha  occ. eigenvalues --   -0.47753  -0.47425  -0.46793  -0.46520  -0.45649
 Alpha  occ. eigenvalues --   -0.45293  -0.45014  -0.44872  -0.44535  -0.44066
 Alpha  occ. eigenvalues --   -0.42913  -0.42599  -0.42228  -0.42130  -0.41695
 Alpha  occ. eigenvalues --   -0.41429  -0.41363  -0.41100  -0.40709  -0.40082
 Alpha  occ. eigenvalues --   -0.39730  -0.38900  -0.38351  -0.37817  -0.37182
 Alpha  occ. eigenvalues --   -0.35989  -0.35640  -0.33925  -0.33458  -0.33328
 Alpha  occ. eigenvalues --   -0.33039  -0.32490  -0.31204  -0.30291  -0.29897
 Alpha  occ. eigenvalues --   -0.29376  -0.29110  -0.28768  -0.28375  -0.27428
 Alpha  occ. eigenvalues --   -0.26470  -0.24415  -0.23981  -0.18868
 Alpha virt. eigenvalues --   -0.13352  -0.07127  -0.06201  -0.04968  -0.04193
 Alpha virt. eigenvalues --   -0.00994  -0.00282  -0.00169   0.00125   0.00616
 Alpha virt. eigenvalues --    0.00662   0.00979   0.01085   0.01238   0.01806

 Mulliken charges:
               1
     1  C    0.368167
     2  C   -0.046014
     3  C    0.143282
     4  C    0.280244
     5  C    0.257177
     6  C   -0.601858
     7  C    0.177141
     8  C    0.030481
     9  C    0.389305
    10  C   -0.205848
    11  C    0.291441
    12  C    0.211639
    13  C   -0.497383
    14  C   -0.675959
    15  H    0.161463
    16  H    0.162705
    17  H    0.164951
    18  N   -0.127554
    19  N   -0.141726
    20  O   -0.272230
    21  O   -0.270847
    22  O   -0.275090
    23  O   -0.160927
    24  C   -0.190035
    25  H    0.177206
    26  H    0.179070
    27  H    0.183459
    28  C   -0.199515
    29  H    0.175474
    30  H    0.174758
    31  H    0.182881
    32  C    0.522449
    33  C   -0.855418
    34  S   -0.336658
    35  C   -0.257670
    36  H    0.118903
    37  C    0.414959
    38  O   -0.116722
    39  C    0.977918
    40  C   -0.252865
    41  C   -0.006250
    42  S   -0.252006
    43  H    0.165561
    44  H    0.145558
    45  H    0.150529
    46  C   -0.527365
    47  O   -0.144037
    48  C   -0.294578
    49  H    0.129464
    50  C   -0.236307
    51  H    0.158009
    52  H    0.142775
    53  H    0.163307
    54  H    0.144585
 Sum of Mulliken charges =  -0.00000

 Dipole moment (field-independent basis, Debye):
    X=             -2.2545    Y=             -0.2880    Z=              0.1679  Tot=              2.2790
 Quadrupole moment (field-independent basis, Debye-Ang):
   XX=           -218.9518   YY=           -229.3474   ZZ=           -202.5244
   XY=             -6.0228   XZ=            -10.8490   YZ=             11.9502

 Normal termination of Gaussian 16 at Sun Nov 29 14:15:18 2020.
