 Gaussian 16, Revision C.01,
 Gaussian 16:  ES64L-G16RevC.01  3-Jul-2019

 -------------------------------------
 # opt=modredundant b3lyp/6-311+g(d,p)
 -------------------------------------

 -----------
 NDI_135.pdb
 -----------
 Symbolic Z-matrix:
 Charge =  0 Multiplicity = 1

 SCF Done:  E(RB3LYP) =  -2359.32695356     A.U. after   17 cycles
 SCF Done:  E(RB3LYP) =  -2359.32497828     A.U. after   18 cycles
 SCF Done:  E(RB3LYP) =  -2359.33299539     A.U. after   14 cycles
 SCF Done:  E(RB3LYP) =  -2359.33548659     A.U. after   16 cycles
 SCF Done:  E(RB3LYP) =  -2359.33571831     A.U. after   16 cycles
 SCF Done:  E(RB3LYP) =  -2359.33617403     A.U. after   13 cycles
 SCF Done:  E(RB3LYP) =  -2359.33620014     A.U. after   12 cycles
 SCF Done:  E(RB3LYP) =  -2359.33620833     A.U. after   12 cycles
 SCF Done:  E(RB3LYP) =  -2359.33620993     A.U. after   11 cycles
 SCF Done:  E(RB3LYP) =  -2359.33621066     A.U. after   11 cycles
 SCF Done:  E(RB3LYP) =  -2359.33621082     A.U. after   10 cycles
 Optimization completed.
    -- Stationary point found.

                         Standard orientation:
 ---------------------------------------------------------------------
 Center     Atomic      Atomic             Coordinates (Angstroms)
 Number     Number       Type             X           Y           Z
 ---------------------------------------------------------------------
      1          6           0        3.422158   -2.735875    0.411657
      2          6           0        2.714537   -1.460373    0.125591
      3          6           0        3.415754   -0.232966    0.151359
      4          6           0        4.793892   -0.198243    0.451493
      5          6           0        5.528446   -1.454507    0.760368
      6          6           0        1.367814   -1.476511   -0.144168
      7          6           0        2.715020    0.965397   -0.157194
      8          6           0        1.320094    0.933916   -0.445467
      9          6           0        0.625670   -0.289620   -0.395483
     10          6           0        0.686353    2.178901   -0.962561
     11          6           0        2.789641    3.454825   -0.540677
     12          6           0        3.447693    2.177855   -0.172366
     13          6           0        4.799175    2.191663    0.135570
     14          6           0        5.476046    1.007286    0.451381
     15          1           0        6.532626    1.012792    0.686582
     16          1           0        5.319265    3.141094    0.117872
     17          1           0        0.848069   -2.425401   -0.114593
     18          7           0        1.457254    3.357145   -0.946564
     19          7           0        4.786271   -2.647102    0.713032
     20          8           0        2.863513   -3.817315    0.395999
     21          8           0        6.712976   -1.459476    1.037105
     22          8           0        3.377088    4.522158   -0.516668
     23          8           0       -0.448949    2.230070   -1.394322
     24          6           0        0.778766    4.572713   -1.419081
     25          1           0        0.450809    4.434758   -2.449386
     26          1           0       -0.099682    4.767971   -0.803605
     27          1           0        1.483527    5.395025   -1.347920
     28          6           0        5.472307   -3.914287    1.004255
     29          1           0        4.988412   -4.408556    1.846716
     30          1           0        5.412989   -4.573137    0.137517
     31          1           0        6.507493   -3.687326    1.238295
     32          6           0       -0.824184   -0.476207   -0.516188
     33          6           0       -1.452520   -1.434825   -1.282974
     34         16           0       -1.968233    0.373883    0.483391
     35          6           0       -2.852244   -1.460828   -1.095267
     36          1           0       -0.919467   -2.071548   -1.974578
     37          6           0       -3.316009   -0.552484   -0.146748
     38          8           0       -3.741859   -2.262535   -1.741017
     39          6           0       -4.668974   -0.362820    0.301686
     40          6           0       -3.227642   -3.271432   -2.604162
     41          6           0       -5.131007    0.538432    1.253817
     42         16           0       -6.024403   -1.296577   -0.321073
     43          1           0       -4.093368   -3.816509   -2.976066
     44          1           0       -2.687106   -2.830613   -3.448212
     45          1           0       -2.569531   -3.957466   -2.060924
     46          6           0       -6.534709    0.484253    1.475837
     47          8           0       -4.247116    1.363941    1.874330
     48          6           0       -7.139797   -0.460342    0.694370
     49          1           0       -7.069384    1.109318    2.175948
     50          6           0       -4.752849    2.301992    2.818606
     51          1           0       -8.188543   -0.712167    0.657585
     52          1           0       -5.233550    1.793683    3.660749
     53          1           0       -3.889381    2.859103    3.177623
     54          1           0       -5.461492    2.991559    2.348704
 ---------------------------------------------------------------------

 The electronic state is 1-A.
 Alpha  occ. eigenvalues --  -88.88171 -88.88056 -19.16966 -19.16817 -19.12460
 Alpha  occ. eigenvalues --  -19.12436 -19.11824 -19.11678 -14.38628 -14.38058
 Alpha  occ. eigenvalues --  -10.31066 -10.30912 -10.30470 -10.30420 -10.24540
 Alpha  occ. eigenvalues --  -10.24426 -10.23796 -10.23674 -10.23600 -10.22888
 Alpha  occ. eigenvalues --  -10.22613 -10.22574 -10.22311 -10.22296 -10.22091
 Alpha  occ. eigenvalues --  -10.21979 -10.21924 -10.21524 -10.21519 -10.21175
 Alpha  occ. eigenvalues --  -10.21122 -10.21051 -10.20760 -10.20605 -10.18996
 Alpha  occ. eigenvalues --  -10.18768  -7.96724  -7.96608  -5.93034  -5.92932
 Alpha  occ. eigenvalues --   -5.92645  -5.92538  -5.92293  -5.92146  -1.08707
 Alpha  occ. eigenvalues --   -1.08520  -1.08360  -1.08201  -1.06900  -1.06341
 Alpha  occ. eigenvalues --   -0.96265  -0.95670  -0.92489  -0.90216  -0.88672
 Alpha  occ. eigenvalues --   -0.86678  -0.84280  -0.80461  -0.78451  -0.77532
 Alpha  occ. eigenvalues --   -0.76376  -0.75234  -0.75120  -0.73151  -0.72491
 Alpha  occ. eigenvalues --   -0.71529  -0.70417  -0.68830  -0.67098  -0.65888
 Alpha  occ. eigenvalues --   -0.65503  -0.64821  -0.60904  -0.59854  -0.58594
 Alpha  occ. eigenvalues --   -0.57429  -0.56715  -0.56222  -0.55084  -0.54740
 Alpha  occ. eigenvalues --   -0.53758  -0.51678  -0.50232  -0.49913  -0.49694
 Alpha  occ. eigenvalues --   -0.49418  -0.48686  -0.48670  -0.48501  -0.48387
 Alpha  occ. eigenvalues --   -0.48058  -0.47100  -0.46597  -0.46334  -0.45829
 Alpha  occ. eigenvalues --   -0.45474  -0.44943  -0.44667  -0.44339  -0.43877
 Alpha  occ. eigenvalues --   -0.42808  -0.42427  -0.42261  -0.41950  -0.41836
 Alpha  occ. eigenvalues --   -0.41528  -0.41279  -0.41171  -0.40554  -0.39899
 Alpha  occ. eigenvalues --   -0.39454  -0.39058  -0.38669  -0.37756  -0.37404
 Alpha  occ. eigenvalues --   -0.36361  -0.35803  -0.34196  -0.33881  -0.33565
 Alpha  occ. eigenvalues --   -0.33360  -0.32127  -0.30969  -0.30140  -0.29773
 Alpha  occ. eigenvalues --   -0.29299  -0.28855  -0.28671  -0.28010  -0.27486
 Alpha  occ. eigenvalues --   -0.26140  -0.24762  -0.24221  -0.19224
 Alpha virt. eigenvalues --   -0.13096  -0.07142  -0.06330  -0.04710  -0.03904
 Alpha virt. eigenvalues --   -0.00844  -0.00467  -0.00314  -0.00010   0.00487
 Alpha virt. eigenvalues --    0.00710   0.01083   0.01305   0.01499   0.01905

 Mulliken charges:
               1
     1  C    0.320534
     2  C   -0.034178
     3  C    0.171781
     4  C    0.250038
     5  C    0.209709
     6  C   -0.270278
     7  C    0.195209
     8  C    0.045995
     9  C    0.283992
    10  C   -0.354483
    11  C    0.260442
    12  C    0.105724
    13  C   -0.455519
    14  C   -0.597871
    15  H    0.159688
    16  H    0.161306
    17  H    0.164589
    18  N   -0.103632
    19  N   -0.142305
    20  O   -0.278482
    21  O   -0.270493
    22  O   -0.279223
    23  O   -0.206938
    24  C   -0.175911
    25  H    0.177437
    26  H    0.176678
    27  H    0.182332
    28  C   -0.195544
    29  H    0.174763
    30  H    0.173496
    31  H    0.182351
    32  C    0.292292
    33  C   -0.600886
    34  S   -0.533888
    35  C   -0.065523
    36  H    0.131061
    37  C    0.554754
    38  O   -0.134475
    39  C    0.861770
    40  C   -0.228454
    41  C    0.012187
    42  S   -0.268796
    43  H    0.166103
    44  H    0.145891
    45  H    0.152900
    46  C   -0.602610
    47  O   -0.137410
    48  C   -0.283618
    49  H    0.131026
    50  C   -0.238927
    51  H    0.159907
    52  H    0.144019
    53  H    0.165418
    54  H    0.146054
 Sum of Mulliken charges =  -0.00000

 Dipole moment (field-independent basis, Debye):
    X=             -3.5954    Y=             -0.5691    Z=              0.4042  Tot=              3.6625
 Quadrupole moment (field-independent basis, Debye-Ang):
   XX=           -215.8594   YY=           -222.5681   ZZ=           -210.6938
   XY=             -8.2884   XZ=            -11.4602   YZ=             14.6282

 Normal termination of Gaussian 16 at Sun Nov 29 15:24:03 2020.
