 Gaussian 16, Revision C.01,
 Gaussian 16:  ES64L-G16RevC.01  3-Jul-2019

 -------------------------------------
 # opt=modredundant b3lyp/6-311+g(d,p)
 -------------------------------------

 -----------
 NDI_-45.pdb
 -----------
 Symbolic Z-matrix:
 Charge =  0 Multiplicity = 1

 SCF Done:  E(RB3LYP) =  -2359.33753961     A.U. after   17 cycles
 SCF Done:  E(RB3LYP) =  -2359.33763865     A.U. after   14 cycles
 SCF Done:  E(RB3LYP) =  -2359.33809803     A.U. after   13 cycles
 SCF Done:  E(RB3LYP) =  -2359.33817006     A.U. after   12 cycles
 SCF Done:  E(RB3LYP) =  -2359.33818270     A.U. after   12 cycles
 SCF Done:  E(RB3LYP) =  -2359.33818872     A.U. after   11 cycles
 SCF Done:  E(RB3LYP) =  -2359.33819005     A.U. after   12 cycles
 SCF Done:  E(RB3LYP) =  -2359.33819098     A.U. after   10 cycles
 SCF Done:  E(RB3LYP) =  -2359.33819108     A.U. after   10 cycles
 SCF Done:  E(RB3LYP) =  -2359.33819113     A.U. after    9 cycles
 Optimization completed.
    -- Stationary point found.

                         Standard orientation:
 ---------------------------------------------------------------------
 Center     Atomic      Atomic             Coordinates (Angstroms)
 Number     Number       Type             X           Y           Z
 ---------------------------------------------------------------------
      1          6           0        2.643341   -2.970620    0.472931
      2          6           0        2.296520   -1.539758    0.263384
      3          6           0        3.314001   -0.573890    0.088950
      4          6           0        4.671960   -0.953051    0.111062
      5          6           0        5.054907   -2.373919    0.329881
      6          6           0        0.979888   -1.158872    0.261856
      7          6           0        2.940970    0.782413   -0.125125
      8          6           0        1.566302    1.168359   -0.135774
      9          6           0        0.565332    0.196390    0.102139
     10          6           0        1.246901    2.578002   -0.491954
     11          6           0        3.677158    3.143878   -0.606107
     12          6           0        3.982258    1.721681   -0.333076
     13          6           0        5.312580    1.329664   -0.302513
     14          6           0        5.664416   -0.004846   -0.077867
     15          1           0        6.700822   -0.316028   -0.056225
     16          1           0        6.070943    2.085391   -0.463493
     17          1           0        0.234358   -1.923808    0.435668
     18          7           0        2.321963    3.463939   -0.699847
     19          7           0        4.005038   -3.292912    0.494319
     20          8           0        1.802607   -3.837885    0.622273
     21          8           0        6.217125   -2.731949    0.363992
     22          8           0        4.547201    3.984180   -0.757944
     23          8           0        0.116423    3.010267   -0.631016
     24          6           0        1.955887    4.846158   -1.040602
     25          1           0        1.368450    4.856122   -1.958642
     26          1           0        1.352006    5.278205   -0.242234
     27          1           0        2.874739    5.409567   -1.167887
     28          6           0        4.336039   -4.709080    0.707798
     29          1           0        3.910879   -5.046950    1.652941
     30          1           0        3.912167   -5.311869   -0.095866
     31          1           0        5.417395   -4.800744    0.721174
     32          6           0       -0.872420    0.432971    0.224095
     33          6           0       -1.554989    1.405022    0.922685
     34         16           0       -1.991423   -0.748301   -0.434423
     35          6           0       -2.949887    1.217134    0.920896
     36          1           0       -1.061002    2.227881    1.412316
     37          6           0       -3.380321    0.094172    0.212604
     38          8           0       -3.872851    2.010650    1.525820
     39          6           0       -4.730577   -0.336729   -0.016601
     40          6           0       -3.421914    3.227056    2.116867
     41          6           0       -5.155549   -1.472948   -0.697763
     42         16           0       -6.133957    0.559044    0.554220
     43          1           0       -4.316459    3.734569    2.473352
     44          1           0       -2.755690    3.029552    2.963004
     45          1           0       -2.909831    3.854166    1.380726
     46          6           0       -6.568132   -1.620471   -0.760295
     47          8           0       -4.231183   -2.313517   -1.229718
     48          6           0       -7.217037   -0.596800   -0.127023
     49          1           0       -7.078369   -2.439389   -1.245795
     50          6           0       -4.690386   -3.488831   -1.891488
     51          1           0       -8.281984   -0.459804   -0.018108
     52          1           0       -5.305914   -3.235878   -2.760638
     53          1           0       -3.795810   -4.013805   -2.221124
     54          1           0       -5.257699   -4.128748   -1.208241
 ---------------------------------------------------------------------

 The electronic state is 1-A.
 Alpha  occ. eigenvalues --  -88.88457 -88.88454 -19.17258 -19.16911 -19.12310
 Alpha  occ. eigenvalues --  -19.12269 -19.11646 -19.11581 -14.38479 -14.38004
 Alpha  occ. eigenvalues --  -10.30910 -10.30743 -10.30491 -10.30225 -10.24894
 Alpha  occ. eigenvalues --  -10.24625 -10.23953 -10.23717 -10.23593 -10.22783
 Alpha  occ. eigenvalues --  -10.22482 -10.22406 -10.22384 -10.22114 -10.22103
 Alpha  occ. eigenvalues --  -10.22002 -10.21838 -10.21823 -10.21287 -10.21082
 Alpha  occ. eigenvalues --  -10.20934 -10.20925 -10.20857 -10.20625 -10.19040
 Alpha  occ. eigenvalues --  -10.18911  -7.97019  -7.97006  -5.93336  -5.93316
 Alpha  occ. eigenvalues --   -5.92948  -5.92927  -5.92574  -5.92566  -1.08811
 Alpha  occ. eigenvalues --   -1.08561  -1.08471  -1.08113  -1.06747  -1.06207
 Alpha  occ. eigenvalues --   -0.96124  -0.95556  -0.92294  -0.90426  -0.88852
 Alpha  occ. eigenvalues --   -0.86552  -0.84103  -0.80423  -0.78314  -0.77726
 Alpha  occ. eigenvalues --   -0.76475  -0.75407  -0.75053  -0.73253  -0.72358
 Alpha  occ. eigenvalues --   -0.71770  -0.70401  -0.68842  -0.67038  -0.65747
 Alpha  occ. eigenvalues --   -0.65524  -0.64578  -0.61131  -0.59918  -0.58547
 Alpha  occ. eigenvalues --   -0.57307  -0.56750  -0.56448  -0.55230  -0.54888
 Alpha  occ. eigenvalues --   -0.53431  -0.51585  -0.50244  -0.49878  -0.49651
 Alpha  occ. eigenvalues --   -0.49346  -0.48860  -0.48629  -0.48449  -0.48407
 Alpha  occ. eigenvalues --   -0.48155  -0.46966  -0.46502  -0.46250  -0.45841
 Alpha  occ. eigenvalues --   -0.45646  -0.44882  -0.44435  -0.44146  -0.43621
 Alpha  occ. eigenvalues --   -0.42786  -0.42550  -0.42351  -0.41991  -0.41778
 Alpha  occ. eigenvalues --   -0.41709  -0.41143  -0.41079  -0.40431  -0.39797
 Alpha  occ. eigenvalues --   -0.39530  -0.39144  -0.38918  -0.37725  -0.37447
 Alpha  occ. eigenvalues --   -0.36485  -0.35794  -0.34405  -0.34054  -0.33766
 Alpha  occ. eigenvalues --   -0.33511  -0.32016  -0.30924  -0.30348  -0.29692
 Alpha  occ. eigenvalues --   -0.29232  -0.28806  -0.28598  -0.27982  -0.27251
 Alpha  occ. eigenvalues --   -0.26041  -0.24758  -0.24620  -0.19447
 Alpha virt. eigenvalues --   -0.12978  -0.07321  -0.06366  -0.04522  -0.03799
 Alpha virt. eigenvalues --   -0.00867  -0.00442  -0.00313   0.00025   0.00434
 Alpha virt. eigenvalues --    0.00781   0.01166   0.01482   0.01559   0.01819

 Mulliken charges:
               1
     1  C    0.295347
     2  C   -0.089100
     3  C    0.154704
     4  C    0.200857
     5  C    0.232260
     6  C   -0.405207
     7  C    0.215424
     8  C    0.319160
     9  C    0.494813
    10  C   -0.390755
    11  C    0.200984
    12  C    0.157486
    13  C   -0.474556
    14  C   -0.582911
    15  H    0.158666
    16  H    0.160750
    17  H    0.181250
    18  N   -0.138211
    19  N   -0.142937
    20  O   -0.279691
    21  O   -0.268791
    22  O   -0.276849
    23  O   -0.204666
    24  C   -0.201940
    25  H    0.176285
    26  H    0.169467
    27  H    0.182477
    28  C   -0.197913
    29  H    0.174063
    30  H    0.173929
    31  H    0.182173
    32  C    0.084822
    33  C   -0.485890
    34  S   -0.557404
    35  C   -0.166344
    36  H    0.135372
    37  C    0.703787
    38  O   -0.131552
    39  C    0.796879
    40  C   -0.240801
    41  C   -0.049551
    42  S   -0.263053
    43  H    0.164902
    44  H    0.144357
    45  H    0.161655
    46  C   -0.588986
    47  O   -0.129509
    48  C   -0.268648
    49  H    0.132212
    50  C   -0.240280
    51  H    0.161235
    52  H    0.145230
    53  H    0.168491
    54  H    0.146513
 Sum of Mulliken charges =  -0.00000

 Dipole moment (field-independent basis, Debye):
    X=             -4.5005    Y=             -0.5663    Z=              0.2006  Tot=              4.5404
 Quadrupole moment (field-independent basis, Debye-Ang):
   XX=           -217.5274   YY=           -214.1658   ZZ=           -216.3582
   XY=              3.9108   XZ=              4.6280   YZ=             15.0436

 Normal termination of Gaussian 16 at Sun Nov 29 11:29:39 2020.
