 Gaussian 16, Revision C.01,
 Gaussian 16:  ES64L-G16RevC.01  3-Jul-2019

 -------------------------------------
 # opt=modredundant b3lyp/6-311+g(d,p)
 -------------------------------------

 -----------
 NDI_-25.pdb
 -----------
 Symbolic Z-matrix:
 Charge =  0 Multiplicity = 1

 SCF Done:  E(RB3LYP) =  -2359.33562739     A.U. after   17 cycles
 SCF Done:  E(RB3LYP) =  -2359.32875830     A.U. after   17 cycles
 SCF Done:  E(RB3LYP) =  -2359.33649431     A.U. after   15 cycles
 SCF Done:  E(RB3LYP) =  -2359.33744194     A.U. after   17 cycles
 SCF Done:  E(RB3LYP) =  -2359.33760896     A.U. after   13 cycles
 SCF Done:  E(RB3LYP) =  -2359.33766706     A.U. after   12 cycles
 SCF Done:  E(RB3LYP) =  -2359.33769765     A.U. after   12 cycles
 SCF Done:  E(RB3LYP) =  -2359.33769986     A.U. after   13 cycles
 SCF Done:  E(RB3LYP) =  -2359.33770047     A.U. after   10 cycles
 SCF Done:  E(RB3LYP) =  -2359.33770061     A.U. after   10 cycles
 SCF Done:  E(RB3LYP) =  -2359.33770070     A.U. after    9 cycles
 Optimization completed.
    -- Stationary point found.

                         Standard orientation:
 ---------------------------------------------------------------------
 Center     Atomic      Atomic             Coordinates (Angstroms)
 Number     Number       Type             X           Y           Z
 ---------------------------------------------------------------------
      1          6           0        2.536790   -3.013562    0.277977
      2          6           0        2.242824   -1.562402    0.140373
      3          6           0        3.293929   -0.618277    0.085454
      4          6           0        4.636129   -1.039332    0.163830
      5          6           0        4.966830   -2.481847    0.313866
      6          6           0        0.941428   -1.143620    0.095052
      7          6           0        2.965149    0.756962   -0.072626
      8          6           0        1.601781    1.186275   -0.135314
      9          6           0        0.557561    0.229615   -0.006499
     10          6           0        1.356809    2.608068   -0.494703
     11          6           0        3.799534    3.113570   -0.384896
     12          6           0        4.044155    1.672544   -0.164697
     13          6           0        5.360352    1.240786   -0.072502
     14          6           0        5.664511   -0.112268    0.094020
     15          1           0        6.689011   -0.454840    0.159571
     16          1           0        6.145087    1.983378   -0.142376
     17          1           0        0.179045   -1.905712    0.190295
     18          7           0        2.465351    3.472687   -0.576355
     19          7           0        3.885063   -3.378159    0.354400
     20          8           0        1.664864   -3.861695    0.329559
     21          8           0        6.114658   -2.876939    0.394807
     22          8           0        4.698403    3.936758   -0.423362
     23          8           0        0.256633    3.078678   -0.732266
     24          6           0        2.163518    4.873636   -0.902638
     25          1           0        1.661781    4.927886   -1.868703
     26          1           0        1.500292    5.296745   -0.147676
     27          1           0        3.103192    5.416183   -0.927613
     28          6           0        4.165329   -4.813954    0.496513
     29          1           0        3.678317   -5.196278    1.393709
     30          1           0        3.772000   -5.353220   -0.365692
     31          1           0        5.241356   -4.938810    0.563754
     32          6           0       -0.871826    0.478632    0.142253
     33          6           0       -1.562755    1.568013    0.637973
     34         16           0       -2.007311   -0.788718   -0.322219
     35          6           0       -2.955342    1.388616    0.661740
     36          1           0       -1.076296    2.465597    0.975094
     37          6           0       -3.390262    0.159182    0.159120
     38          8           0       -3.876337    2.278845    1.113119
     39          6           0       -4.740816   -0.302472    0.018206
     40          6           0       -3.421900    3.578875    1.485559
     41          6           0       -5.171028   -1.534271   -0.467993
     42         16           0       -6.139797    0.671510    0.457941
     43          1           0       -4.316377    4.145340    1.738031
     44          1           0       -2.764652    3.528749    2.359579
     45          1           0       -2.898187    4.063072    0.656025
     46          6           0       -6.583485   -1.690971   -0.486984
     47          8           0       -4.251777   -2.446295   -0.871299
     48          6           0       -7.226617   -0.579632   -0.015864
     49          1           0       -7.097835   -2.576767   -0.829603
     50          6           0       -4.713647   -3.714069   -1.331430
     51          1           0       -8.290678   -0.427547    0.081756
     52          1           0       -5.340382   -3.604008   -2.221998
     53          1           0       -3.820383   -4.282107   -1.583816
     54          1           0       -5.269727   -4.237423   -0.547383
 ---------------------------------------------------------------------

 The electronic state is 1-A.
 Alpha  occ. eigenvalues --  -88.88758 -88.88632 -19.17554 -19.17128 -19.12178
 Alpha  occ. eigenvalues --  -19.12154 -19.11417 -19.11403 -14.38360 -14.37838
 Alpha  occ. eigenvalues --  -10.30770 -10.30624 -10.30353 -10.29978 -10.25270
 Alpha  occ. eigenvalues --  -10.24875 -10.24139 -10.23801 -10.23684 -10.22841
 Alpha  occ. eigenvalues --  -10.22612 -10.22277 -10.22270 -10.22135 -10.22129
 Alpha  occ. eigenvalues --  -10.21909 -10.21883 -10.21565 -10.21424 -10.21194
 Alpha  occ. eigenvalues --  -10.20846 -10.20663 -10.20581 -10.20527 -10.19325
 Alpha  occ. eigenvalues --  -10.18979  -7.97309  -7.97200  -5.93618  -5.93517
 Alpha  occ. eigenvalues --   -5.93229  -5.93127  -5.92877  -5.92747  -1.09125
 Alpha  occ. eigenvalues --   -1.08697  -1.08436  -1.07946  -1.06618  -1.06005
 Alpha  occ. eigenvalues --   -0.96000  -0.95383  -0.92109  -0.90635  -0.89045
 Alpha  occ. eigenvalues --   -0.86435  -0.83905  -0.80459  -0.78213  -0.77841
 Alpha  occ. eigenvalues --   -0.76640  -0.75615  -0.74924  -0.73459  -0.72256
 Alpha  occ. eigenvalues --   -0.71764  -0.70563  -0.68870  -0.66937  -0.65595
 Alpha  occ. eigenvalues --   -0.65470  -0.64450  -0.61264  -0.60070  -0.58520
 Alpha  occ. eigenvalues --   -0.57265  -0.56781  -0.56651  -0.55237  -0.55003
 Alpha  occ. eigenvalues --   -0.53344  -0.51473  -0.50323  -0.49822  -0.49528
 Alpha  occ. eigenvalues --   -0.49238  -0.49093  -0.48668  -0.48559  -0.48368
 Alpha  occ. eigenvalues --   -0.48181  -0.46936  -0.46469  -0.46184  -0.45901
 Alpha  occ. eigenvalues --   -0.45715  -0.44750  -0.44306  -0.43985  -0.43372
 Alpha  occ. eigenvalues --   -0.42960  -0.42625  -0.42414  -0.41956  -0.41901
 Alpha  occ. eigenvalues --   -0.41638  -0.41022  -0.40965  -0.40329  -0.39938
 Alpha  occ. eigenvalues --   -0.39353  -0.39160  -0.38979  -0.37845  -0.37388
 Alpha  occ. eigenvalues --   -0.36648  -0.36080  -0.34599  -0.34308  -0.33744
 Alpha  occ. eigenvalues --   -0.33600  -0.31842  -0.30817  -0.30398  -0.29621
 Alpha  occ. eigenvalues --   -0.29161  -0.28635  -0.28517  -0.27831  -0.27204
 Alpha  occ. eigenvalues --   -0.25973  -0.24942  -0.24786  -0.19665
 Alpha virt. eigenvalues --   -0.12837  -0.07676  -0.06285  -0.04312  -0.03652
 Alpha virt. eigenvalues --   -0.00842  -0.00476  -0.00307  -0.00051   0.00379
 Alpha virt. eigenvalues --    0.00844   0.01268   0.01450   0.01761   0.01937

 Mulliken charges:
               1
     1  C    0.253789
     2  C   -0.035185
     3  C    0.213332
     4  C    0.209321
     5  C    0.230298
     6  C   -0.008658
     7  C    0.248588
     8  C    0.445184
     9  C    0.302332
    10  C   -0.702319
    11  C    0.199687
    12  C    0.125537
    13  C   -0.476764
    14  C   -0.587105
    15  H    0.157853
    16  H    0.160639
    17  H    0.170883
    18  N   -0.117882
    19  N   -0.140648
    20  O   -0.284753
    21  O   -0.268367
    22  O   -0.279086
    23  O   -0.238313
    24  C   -0.178165
    25  H    0.176818
    26  H    0.168319
    27  H    0.182551
    28  C   -0.198458
    29  H    0.173612
    30  H    0.173282
    31  H    0.181717
    32  C   -0.033733
    33  C   -0.405390
    34  S   -0.658979
    35  C   -0.221018
    36  H    0.145818
    37  C    0.716740
    38  O   -0.128216
    39  C    0.856964
    40  C   -0.242416
    41  C   -0.006673
    42  S   -0.249069
    43  H    0.165514
    44  H    0.145142
    45  H    0.165359
    46  C   -0.620194
    47  O   -0.128098
    48  C   -0.279427
    49  H    0.133445
    50  C   -0.240458
    51  H    0.162821
    52  H    0.145285
    53  H    0.171107
    54  H    0.147439
 Sum of Mulliken charges =  -0.00000

 Dipole moment (field-independent basis, Debye):
    X=             -5.4087    Y=             -0.6916    Z=              0.2124  Tot=              5.4569
 Quadrupole moment (field-independent basis, Debye-Ang):
   XX=           -215.8564   YY=           -210.7831   ZZ=           -220.2092
   XY=              4.4526   XZ=              1.9335   YZ=             11.3329

 Normal termination of Gaussian 16 at Sun Nov 29 12:05:16 2020.
