 Gaussian 16, Revision C.01,
 Gaussian 16:  ES64L-G16RevC.01  3-Jul-2019

 -------------------------------------
 # opt=modredundant b3lyp/6-311+g(d,p)
 -------------------------------------

 -----------
 NDI_-15.pdb
 -----------
 Symbolic Z-matrix:
 Charge =  0 Multiplicity = 1

 SCF Done:  E(RB3LYP) =  -2359.33028331     A.U. after   17 cycles
 SCF Done:  E(RB3LYP) =  -2359.31394453     A.U. after   17 cycles
 SCF Done:  E(RB3LYP) =  -2359.33291153     A.U. after   15 cycles
 SCF Done:  E(RB3LYP) =  -2359.33566133     A.U. after   17 cycles
 SCF Done:  E(RB3LYP) =  -2359.33608421     A.U. after   17 cycles
 SCF Done:  E(RB3LYP) =  -2359.33656606     A.U. after   13 cycles
 SCF Done:  E(RB3LYP) =  -2359.33660761     A.U. after   12 cycles
 SCF Done:  E(RB3LYP) =  -2359.33662783     A.U. after   12 cycles
 SCF Done:  E(RB3LYP) =  -2359.33663402     A.U. after   12 cycles
 SCF Done:  E(RB3LYP) =  -2359.33663488     A.U. after   11 cycles
 SCF Done:  E(RB3LYP) =  -2359.33663584     A.U. after   10 cycles
 SCF Done:  E(RB3LYP) =  -2359.33663602     A.U. after    9 cycles
 SCF Done:  E(RB3LYP) =  -2359.33663607     A.U. after    9 cycles
 Optimization completed.
    -- Stationary point found.

                         Standard orientation:
 ---------------------------------------------------------------------
 Center     Atomic      Atomic             Coordinates (Angstroms)
 Number     Number       Type             X           Y           Z
 ---------------------------------------------------------------------
      1          6           0       -2.461995   -3.029137   -0.158038
      2          6           0       -2.204977   -1.567385   -0.066700
      3          6           0       -3.277247   -0.646161   -0.078160
      4          6           0       -4.606155   -1.100527   -0.182791
      5          6           0       -4.900202   -2.554656   -0.289414
      6          6           0       -0.916037   -1.118420   -0.000217
      7          6           0       -2.980347    0.739779    0.043078
      8          6           0       -1.627628    1.202756    0.130825
      9          6           0       -0.555411    0.265211    0.064163
     10          6           0       -1.434193    2.636591    0.468299
     11          6           0       -3.879640    3.084284    0.248540
     12          6           0       -4.082561    1.632180    0.068627
     13          6           0       -5.385904    1.168169   -0.052011
     14          6           0       -5.656591   -0.195447   -0.179721
     15          1           0       -6.670838   -0.562974   -0.265693
     16          1           0       -6.187288    1.895903   -0.034279
     17          1           0       -0.142837   -1.873996   -0.044247
     18          7           0       -2.562491    3.478433    0.480624
     19          7           0       -3.798558   -3.427290   -0.261382
     20          8           0       -1.570066   -3.858066   -0.152904
     21          8           0       -6.035828   -2.978883   -0.392097
     22          8           0       -4.796691    3.887955    0.224843
     23          8           0       -0.356530    3.141878    0.740284
     24          6           0       -2.304288    4.894315    0.778519
     25          1           0       -1.843762    4.986972    1.762001
     26          1           0       -1.620247    5.311254    0.038845
     27          1           0       -3.255849    5.415577    0.749939
     28          6           0       -4.043074   -4.873272   -0.358354
     29          1           0       -3.520551   -5.276995   -1.225720
     30          1           0       -3.664968   -5.371528    0.534784
     31          1           0       -5.113563   -5.024981   -0.453179
     32          6           0        0.872068    0.525282   -0.087652
     33          6           0        1.575372    1.654306   -0.471493
     34         16           0        2.009458   -0.783004    0.264992
     35          6           0        2.966026    1.471352   -0.510094
     36          1           0        1.097618    2.584087   -0.717619
     37          6           0        3.395582    0.198253   -0.125101
     38          8           0        3.890996    2.396170   -0.874446
     39          6           0        4.743259   -0.282168   -0.034610
     40          6           0        3.442533    3.727723   -1.124243
     41          6           0        5.168268   -1.554662    0.339850
     42         16           0        6.145903    0.717198   -0.400160
     43          1           0        4.339968    4.310946   -1.322042
     44          1           0        2.785761    3.762051   -1.999212
     45          1           0        2.919719    4.134671   -0.253803
     46          6           0        6.579548   -1.721349    0.333504
     47          8           0        4.246006   -2.491661    0.669856
     48          6           0        7.226716   -0.577389   -0.045231
     49          1           0        7.090295   -2.636581    0.594317
     50          6           0        4.701222   -3.798036    1.015217
     51          1           0        8.291161   -0.424171   -0.137042
     52          1           0        5.335069   -3.769689    1.907038
     53          1           0        3.805189   -4.379025    1.224418
     54          1           0        5.247533   -4.255330    0.184445
 ---------------------------------------------------------------------

 The electronic state is 1-A.
 Alpha  occ. eigenvalues --  -88.88873 -88.88668 -19.17659 -19.17186 -19.12138
 Alpha  occ. eigenvalues --  -19.12124 -19.11373 -19.11332 -14.38327 -14.37790
 Alpha  occ. eigenvalues --  -10.30727 -10.30591 -10.30327 -10.29883 -10.25416
 Alpha  occ. eigenvalues --  -10.24935 -10.24199 -10.23910 -10.23692 -10.22988
 Alpha  occ. eigenvalues --  -10.22563 -10.22447 -10.22241 -10.22239 -10.22042
 Alpha  occ. eigenvalues --  -10.21832 -10.21807 -10.21557 -10.21471 -10.21171
 Alpha  occ. eigenvalues --  -10.20824 -10.20567 -10.20496 -10.20483 -10.19432
 Alpha  occ. eigenvalues --  -10.18921  -7.97423  -7.97241  -5.93733  -5.93558
 Alpha  occ. eigenvalues --   -5.93343  -5.93166  -5.92992  -5.92785  -1.09239
 Alpha  occ. eigenvalues --   -1.08755  -1.08401  -1.07909  -1.06581  -1.05945
 Alpha  occ. eigenvalues --   -0.95967  -0.95338  -0.92047  -0.90705  -0.89105
 Alpha  occ. eigenvalues --   -0.86392  -0.83839  -0.80476  -0.78212  -0.77855
 Alpha  occ. eigenvalues --   -0.76698  -0.75662  -0.74888  -0.73529  -0.72225
 Alpha  occ. eigenvalues --   -0.71767  -0.70617  -0.68871  -0.66921  -0.65556
 Alpha  occ. eigenvalues --   -0.65456  -0.64406  -0.61319  -0.60121  -0.58525
 Alpha  occ. eigenvalues --   -0.57269  -0.56822  -0.56670  -0.55313  -0.54974
 Alpha  occ. eigenvalues --   -0.53311  -0.51441  -0.50373  -0.49805  -0.49497
 Alpha  occ. eigenvalues --   -0.49219  -0.49172  -0.48678  -0.48591  -0.48374
 Alpha  occ. eigenvalues --   -0.48169  -0.46972  -0.46477  -0.46138  -0.45962
 Alpha  occ. eigenvalues --   -0.45698  -0.44706  -0.44268  -0.43952  -0.43219
 Alpha  occ. eigenvalues --   -0.43039  -0.42637  -0.42460  -0.42019  -0.41872
 Alpha  occ. eigenvalues --   -0.41592  -0.41003  -0.40943  -0.40305  -0.39960
 Alpha  occ. eigenvalues --   -0.39320  -0.39174  -0.38944  -0.37846  -0.37374
 Alpha  occ. eigenvalues --   -0.36672  -0.36216  -0.34679  -0.34394  -0.33672
 Alpha  occ. eigenvalues --   -0.33584  -0.31792  -0.30780  -0.30426  -0.29598
 Alpha  occ. eigenvalues --   -0.29143  -0.28568  -0.28499  -0.27768  -0.27205
 Alpha  occ. eigenvalues --   -0.25985  -0.25002  -0.24870  -0.19752
 Alpha virt. eigenvalues --   -0.12784  -0.07849  -0.06254  -0.04241  -0.03603
 Alpha virt. eigenvalues --   -0.00848  -0.00449  -0.00303  -0.00085   0.00381
 Alpha virt. eigenvalues --    0.00860   0.01320   0.01430   0.01828   0.01954

 Mulliken charges:
               1
     1  C    0.258156
     2  C    0.014231
     3  C    0.229433
     4  C    0.233549
     5  C    0.239646
     6  C    0.152523
     7  C    0.256964
     8  C    0.402950
     9  C    0.240912
    10  C   -0.845355
    11  C    0.183835
    12  C    0.137252
    13  C   -0.476215
    14  C   -0.591772
    15  H    0.157657
    16  H    0.160797
    17  H    0.166151
    18  N   -0.118314
    19  N   -0.141078
    20  O   -0.286548
    21  O   -0.267908
    22  O   -0.280166
    23  O   -0.253492
    24  C   -0.167579
    25  H    0.177329
    26  H    0.168197
    27  H    0.182732
    28  C   -0.197723
    29  H    0.173461
    30  H    0.172966
    31  H    0.181502
    32  C   -0.082757
    33  C   -0.207947
    34  S   -0.674991
    35  C   -0.422782
    36  H    0.155611
    37  C    0.679270
    38  O   -0.127423
    39  C    0.919781
    40  C   -0.244590
    41  C    0.012805
    42  S   -0.235481
    43  H    0.165807
    44  H    0.145297
    45  H    0.166043
    46  C   -0.611844
    47  O   -0.127606
    48  C   -0.295210
    49  H    0.133878
    50  C   -0.240817
    51  H    0.163537
    52  H    0.145297
    53  H    0.172480
    54  H    0.147550
 Sum of Mulliken charges =  -0.00000

 Dipole moment (field-independent basis, Debye):
    X=              5.7381    Y=             -0.7462    Z=             -0.1945  Tot=              5.7896
 Quadrupole moment (field-independent basis, Debye-Ang):
   XX=           -215.2712   YY=           -209.2089   ZZ=           -221.8964
   XY=             -4.6962   XZ=              0.3912   YZ=             -8.6891

 Normal termination of Gaussian 16 at Sun Nov 29 13:19:24 2020.
