 Gaussian 16, Revision C.01,
 Gaussian 16:  ES64L-G16RevC.01  3-Jul-2019

 -------------------------------------
 # opt=modredundant b3lyp/6-311+g(d,p)
 -------------------------------------

 ------------
 NDI_-125.pdb
 ------------
 Symbolic Z-matrix:
 Charge =  0 Multiplicity = 1

 SCF Done:  E(RB3LYP) =  -2359.32797304     A.U. after   17 cycles
 SCF Done:  E(RB3LYP) =  -2359.33100445     A.U. after   18 cycles
 SCF Done:  E(RB3LYP) =  -2359.33446917     A.U. after   18 cycles
 SCF Done:  E(RB3LYP) =  -2359.33497438     A.U. after   15 cycles
 SCF Done:  E(RB3LYP) =  -2359.33524054     A.U. after   14 cycles
 SCF Done:  E(RB3LYP) =  -2359.33548650     A.U. after   12 cycles
 SCF Done:  E(RB3LYP) =  -2359.33556345     A.U. after   13 cycles
 SCF Done:  E(RB3LYP) =  -2359.33557377     A.U. after   12 cycles
 SCF Done:  E(RB3LYP) =  -2359.33558079     A.U. after   11 cycles
 SCF Done:  E(RB3LYP) =  -2359.33558176     A.U. after   12 cycles
 SCF Done:  E(RB3LYP) =  -2359.33558195     A.U. after   11 cycles
 Optimization completed.
    -- Stationary point found.

                         Standard orientation:
 ---------------------------------------------------------------------
 Center     Atomic      Atomic             Coordinates (Angstroms)
 Number     Number       Type             X           Y           Z
 ---------------------------------------------------------------------
      1          6           0       -3.408876   -2.752962    0.414765
      2          6           0       -2.706976   -1.471088    0.142303
      3          6           0       -3.418244   -0.249949    0.159412
      4          6           0       -4.803826   -0.228361    0.429089
      5          6           0       -5.535860   -1.492885    0.710296
      6          6           0       -1.358830   -1.476862   -0.127381
      7          6           0       -2.723920    0.956510   -0.131828
      8          6           0       -1.324795    0.937322   -0.397861
      9          6           0       -0.627767   -0.282336   -0.364945
     10          6           0       -0.680456    2.197325   -0.867890
     11          6           0       -2.813100    3.446077   -0.516015
     12          6           0       -3.466523    2.162597   -0.159492
     13          6           0       -4.823708    2.163119    0.119645
     14          6           0       -5.495905    0.970663    0.417588
     15          1           0       -6.557800    0.965557    0.627800
     16          1           0       -5.353120    3.107130    0.091355
     17          1           0       -0.830237   -2.421420   -0.110891
     18          7           0       -1.468494    3.364050   -0.883556
     19          7           0       -4.783806   -2.678845    0.669164
     20          8           0       -2.835654   -3.826273    0.434684
     21          8           0       -6.726393   -1.508381    0.959523
     22          8           0       -3.413982    4.505853   -0.511250
     23          8           0        0.477577    2.269134   -1.228689
     24          6           0       -0.786316    4.591073   -1.320374
     25          1           0        0.056891    4.799782   -0.661529
     26          1           0       -0.405713    4.459397   -2.333164
     27          1           0       -1.506737    5.402011   -1.284243
     28          6           0       -5.464830   -3.953158    0.940830
     29          1           0       -5.328849   -4.628109    0.095877
     30          1           0       -5.034893   -4.420129    1.827443
     31          1           0       -6.518114   -3.742469    1.096020
     32          6           0        0.826501   -0.450968   -0.510306
     33          6           0        1.465834   -1.254189   -1.425275
     34         16           0        1.954703    0.249337    0.613971
     35          6           0        2.870344   -1.276648   -1.248422
     36          1           0        0.940723   -1.781303   -2.209077
     37          6           0        3.320997   -0.523742   -0.169565
     38          8           0        3.768815   -1.965663   -2.003923
     39          6           0        4.673188   -0.378349    0.301464
     40          6           0        3.291556   -2.633079   -3.167087
     41          6           0        5.121547    0.369934    1.382571
     42         16           0        6.044895   -1.166262   -0.468789
     43          1           0        4.167834   -3.072479   -3.640491
     44          1           0        2.584724   -3.427761   -2.905908
     45          1           0        2.817362   -1.928758   -3.858329
     46          6           0        6.528410    0.317047    1.586280
     47          8           0        4.223712    1.069456    2.127975
     48          6           0        7.149743   -0.474936    0.661405
     49          1           0        7.053705    0.836128    2.374610
     50          6           0        4.707922    1.801396    3.248513
     51          1           0        8.203826   -0.691189    0.579540
     52          1           0        5.414172    2.578301    2.937921
     53          1           0        3.834462    2.267643    3.700970
     54          1           0        5.185017    1.137722    3.977036
 ---------------------------------------------------------------------

 The electronic state is 1-A.
 Alpha  occ. eigenvalues --  -88.87919 -88.87883 -19.16702 -19.16615 -19.12574
 Alpha  occ. eigenvalues --  -19.12535 -19.12018 -19.11895 -14.38732 -14.38236
 Alpha  occ. eigenvalues --  -10.31187 -10.31014 -10.30662 -10.30620 -10.24224
 Alpha  occ. eigenvalues --  -10.24203 -10.23666 -10.23612 -10.23538 -10.23071
 Alpha  occ. eigenvalues --  -10.22848 -10.22823 -10.22481 -10.22473 -10.22318
 Alpha  occ. eigenvalues --  -10.21758 -10.21623 -10.21612 -10.21392 -10.21332
 Alpha  occ. eigenvalues --  -10.21261 -10.21130 -10.20724 -10.20473 -10.18787
 Alpha  occ. eigenvalues --  -10.18525  -7.96473  -7.96434  -5.92783  -5.92760
 Alpha  occ. eigenvalues --   -5.92394  -5.92366  -5.92041  -5.91969  -1.08818
 Alpha  occ. eigenvalues --   -1.08397  -1.08250  -1.08142  -1.07012  -1.06545
 Alpha  occ. eigenvalues --   -0.96379  -0.95848  -0.92655  -0.90026  -0.88499
 Alpha  occ. eigenvalues --   -0.86749  -0.84449  -0.80443  -0.78608  -0.77406
 Alpha  occ. eigenvalues --   -0.76202  -0.75282  -0.74965  -0.72983  -0.72588
 Alpha  occ. eigenvalues --   -0.71600  -0.70227  -0.68757  -0.67221  -0.66030
 Alpha  occ. eigenvalues --   -0.65595  -0.64897  -0.60842  -0.59727  -0.58600
 Alpha  occ. eigenvalues --   -0.57525  -0.56671  -0.56004  -0.55193  -0.54531
 Alpha  occ. eigenvalues --   -0.53810  -0.51803  -0.50320  -0.49951  -0.49767
 Alpha  occ. eigenvalues --   -0.49443  -0.48738  -0.48624  -0.48474  -0.48209
 Alpha  occ. eigenvalues --   -0.47896  -0.47261  -0.46677  -0.46431  -0.45746
 Alpha  occ. eigenvalues --   -0.45330  -0.44999  -0.44778  -0.44428  -0.43983
 Alpha  occ. eigenvalues --   -0.42817  -0.42487  -0.42244  -0.42059  -0.41761
 Alpha  occ. eigenvalues --   -0.41401  -0.41302  -0.41243  -0.40637  -0.39978
 Alpha  occ. eigenvalues --   -0.39581  -0.38897  -0.38614  -0.37771  -0.37228
 Alpha  occ. eigenvalues --   -0.36120  -0.35733  -0.34018  -0.33623  -0.33416
 Alpha  occ. eigenvalues --   -0.33334  -0.32306  -0.31084  -0.30151  -0.29853
 Alpha  occ. eigenvalues --   -0.29324  -0.28983  -0.28721  -0.28187  -0.27479
 Alpha  occ. eigenvalues --   -0.26302  -0.24569  -0.24082  -0.19029
 Alpha virt. eigenvalues --   -0.13229  -0.07090  -0.06280  -0.04856  -0.04048
 Alpha virt. eigenvalues --   -0.00920  -0.00352  -0.00253   0.00062   0.00582
 Alpha virt. eigenvalues --    0.00646   0.01030   0.01205   0.01361   0.01853

 Mulliken charges:
               1
     1  C    0.338912
     2  C   -0.041108
     3  C    0.177606
     4  C    0.275103
     5  C    0.280775
     6  C   -0.435179
     7  C    0.163462
     8  C    0.030719
     9  C    0.282942
    10  C   -0.255448
    11  C    0.252022
    12  C    0.174959
    13  C   -0.452610
    14  C   -0.674843
    15  H    0.160812
    16  H    0.162089
    17  H    0.168045
    18  N   -0.126137
    19  N   -0.140202
    20  O   -0.274292
    21  O   -0.270963
    22  O   -0.277509
    23  O   -0.185566
    24  C   -0.182824
    25  H    0.178219
    26  H    0.176980
    27  H    0.182965
    28  C   -0.198970
    29  H    0.173889
    30  H    0.175736
    31  H    0.182672
    32  C    0.293031
    33  C   -0.558595
    34  S   -0.431281
    35  C   -0.240514
    36  H    0.125843
    37  C    0.427164
    38  O   -0.115741
    39  C    0.971158
    40  C   -0.249050
    41  C   -0.021387
    42  S   -0.241775
    43  H    0.166172
    44  H    0.146730
    45  H    0.150885
    46  C   -0.519428
    47  O   -0.142752
    48  C   -0.286957
    49  H    0.130178
    50  C   -0.237709
    51  H    0.158899
    52  H    0.144087
    53  H    0.164377
    54  H    0.144412
 Sum of Mulliken charges =  -0.00000

 Dipole moment (field-independent basis, Debye):
    X=              2.8929    Y=             -0.2901    Z=              0.0584  Tot=              2.9080
 Quadrupole moment (field-independent basis, Debye-Ang):
   XX=           -217.5071   YY=           -227.7876   ZZ=           -204.6781
   XY=              7.7023   XZ=             10.5972   YZ=             13.8841

 Normal termination of Gaussian 16 at Sun Nov 29 12:24:58 2020.
