 Gaussian 16, Revision C.01,
 Gaussian 16:  ES64L-G16RevC.01  3-Jul-2019

 -------------------------------------
 # opt=modredundant b3lyp/6-311+g(d,p)
 -------------------------------------

 ------------
 NDI_-155.pdb
 ------------
 Symbolic Z-matrix:
 Charge =  0 Multiplicity = 1

 SCF Done:  E(RB3LYP) =  -2359.30984611     A.U. after   17 cycles
 SCF Done:  E(RB3LYP) =  -2359.32385842     A.U. after   17 cycles
 SCF Done:  E(RB3LYP) =  -2359.33252968     A.U. after   16 cycles
 SCF Done:  E(RB3LYP) =  -2359.33443432     A.U. after   14 cycles
 SCF Done:  E(RB3LYP) =  -2359.33498060     A.U. after   16 cycles
 SCF Done:  E(RB3LYP) =  -2359.33503331     A.U. after   13 cycles
 SCF Done:  E(RB3LYP) =  -2359.33514809     A.U. after   12 cycles
 SCF Done:  E(RB3LYP) =  -2359.33521194     A.U. after   13 cycles
 SCF Done:  E(RB3LYP) =  -2359.33528594     A.U. after   13 cycles
 SCF Done:  E(RB3LYP) =  -2359.33534159     A.U. after   13 cycles
 SCF Done:  E(RB3LYP) =  -2359.33540196     A.U. after   13 cycles
 SCF Done:  E(RB3LYP) =  -2359.33543456     A.U. after   13 cycles
 SCF Done:  E(RB3LYP) =  -2359.33545683     A.U. after   13 cycles
 SCF Done:  E(RB3LYP) =  -2359.33546661     A.U. after   12 cycles
 SCF Done:  E(RB3LYP) =  -2359.33547345     A.U. after   13 cycles
 SCF Done:  E(RB3LYP) =  -2359.33548173     A.U. after   12 cycles
 SCF Done:  E(RB3LYP) =  -2359.33548157     A.U. after   12 cycles
 SCF Done:  E(RB3LYP) =  -2359.33548245     A.U. after   12 cycles
 SCF Done:  E(RB3LYP) =  -2359.33548259     A.U. after   11 cycles
 SCF Done:  E(RB3LYP) =  -2359.33548260     A.U. after    9 cycles
 Optimization completed.
    -- Stationary point found.

                         Standard orientation:
 ---------------------------------------------------------------------
 Center     Atomic      Atomic             Coordinates (Angstroms)
 Number     Number       Type             X           Y           Z
 ---------------------------------------------------------------------
      1          6           0       -3.377586   -2.734515    0.354947
      2          6           0       -2.698228   -1.436637    0.101837
      3          6           0       -3.426526   -0.225937    0.144766
      4          6           0       -4.808330   -0.230289    0.421094
      5          6           0       -5.521247   -1.510839    0.673909
      6          6           0       -1.355438   -1.422277   -0.166539
      7          6           0       -2.738510    0.990147   -0.118555
      8          6           0       -1.336342    0.994252   -0.390918
      9          6           0       -0.612813   -0.223519   -0.395441
     10          6           0       -0.726096    2.280381   -0.811274
     11          6           0       -2.874328    3.487858   -0.429200
     12          6           0       -3.500523    2.185738   -0.107823
     13          6           0       -4.858378    2.163149    0.177650
     14          6           0       -5.518079    0.960062    0.445439
     15          1           0       -6.578607    0.937054    0.660327
     16          1           0       -5.394891    3.103540    0.177041
     17          1           0       -0.836685   -2.369761   -0.140455
     18          7           0       -1.530788    3.434403   -0.800769
     19          7           0       -4.752415   -2.686399    0.608182
     20          8           0       -2.786676   -3.799463    0.358728
     21          8           0       -6.711352   -1.550837    0.922674
     22          8           0       -3.490217    4.539482   -0.394562
     23          8           0        0.433997    2.392727   -1.166129
     24          6           0       -0.867227    4.682330   -1.204315
     25          1           0       -0.029072    4.888895   -0.538302
     26          1           0       -0.481510    4.582480   -2.218789
     27          1           0       -1.601554    5.479697   -1.149774
     28          6           0       -5.415402   -3.974829    0.855112
     29          1           0       -5.268547   -4.632120   -0.001921
     30          1           0       -4.980362   -4.452213    1.733720
     31          1           0       -6.471829   -3.782015    1.012193
     32          6           0        0.831694   -0.437338   -0.522367
     33          6           0        1.400294   -1.610335   -1.006077
     34         16           0        2.061709    0.568275    0.201131
     35          6           0        2.788424   -1.687578   -0.812208
     36          1           0        0.826725   -2.375693   -1.507365
     37          6           0        3.323864   -0.596504   -0.124550
     38          8           0        3.611058   -2.698435   -1.202256
     39          6           0        4.693633   -0.388542    0.252223
     40          6           0        3.057522   -3.738779   -2.002181
     41          6           0        5.232328    0.695969    0.938689
     42         16           0        5.975061   -1.539203   -0.114552
     43          1           0        3.885114   -4.403703   -2.242511
     44          1           0        2.292720   -4.296511   -1.451774
     45          1           0        2.629598   -3.337738   -2.926673
     46          6           0        6.633830    0.607428    1.159899
     47          8           0        4.418501    1.711767    1.320867
     48          6           0        7.160232   -0.545450    0.646282
     49          1           0        7.222166    1.354431    1.672214
     50          6           0        4.988077    2.794617    2.050717
     51          1           0        8.189950   -0.867673    0.673089
     52          1           0        5.748564    3.312381    1.457614
     53          1           0        4.166399    3.476846    2.260127
     54          1           0        5.424362    2.447614    2.992804
 ---------------------------------------------------------------------

 The electronic state is 1-A.
 Alpha  occ. eigenvalues --  -88.88538 -88.88225 -19.17308 -19.17044 -19.12284
 Alpha  occ. eigenvalues --  -19.12278 -19.11484 -19.11415 -14.38465 -14.37844
 Alpha  occ. eigenvalues --  -10.30871 -10.30750 -10.30215 -10.30063 -10.25019
 Alpha  occ. eigenvalues --  -10.24639 -10.24009 -10.23835 -10.23742 -10.22642
 Alpha  occ. eigenvalues --  -10.22410 -10.22251 -10.22234 -10.22219 -10.21992
 Alpha  occ. eigenvalues --  -10.21983 -10.21884 -10.21701 -10.21277 -10.21202
 Alpha  occ. eigenvalues --  -10.20931 -10.20788 -10.20731 -10.20448 -10.19253
 Alpha  occ. eigenvalues --  -10.19119  -7.97091  -7.96750  -5.93400  -5.93071
 Alpha  occ. eigenvalues --   -5.93011  -5.92666  -5.92659  -5.92299  -1.08903
 Alpha  occ. eigenvalues --   -1.08601  -1.08536  -1.07970  -1.06723  -1.06056
 Alpha  occ. eigenvalues --   -0.96095  -0.95438  -0.92188  -0.90435  -0.88883
 Alpha  occ. eigenvalues --   -0.86491  -0.83990  -0.80478  -0.78183  -0.77666
 Alpha  occ. eigenvalues --   -0.76586  -0.75506  -0.74969  -0.73373  -0.72332
 Alpha  occ. eigenvalues --   -0.71429  -0.70649  -0.68867  -0.66921  -0.65700
 Alpha  occ. eigenvalues --   -0.65363  -0.64704  -0.60971  -0.60016  -0.58555
 Alpha  occ. eigenvalues --   -0.57327  -0.56727  -0.56454  -0.55169  -0.54777
 Alpha  occ. eigenvalues --   -0.53656  -0.51464  -0.50139  -0.49913  -0.49473
 Alpha  occ. eigenvalues --   -0.49289  -0.48940  -0.48650  -0.48607  -0.48333
 Alpha  occ. eigenvalues --   -0.48171  -0.46952  -0.46530  -0.46173  -0.45899
 Alpha  occ. eigenvalues --   -0.45623  -0.44859  -0.44431  -0.44139  -0.43636
 Alpha  occ. eigenvalues --   -0.42924  -0.42431  -0.42208  -0.41961  -0.41740
 Alpha  occ. eigenvalues --   -0.41675  -0.41176  -0.41022  -0.40438  -0.39768
 Alpha  occ. eigenvalues --   -0.39412  -0.39105  -0.38868  -0.37649  -0.37251
 Alpha  occ. eigenvalues --   -0.36540  -0.36051  -0.34416  -0.34116  -0.33682
 Alpha  occ. eigenvalues --   -0.33471  -0.31833  -0.30786  -0.30205  -0.29702
 Alpha  occ. eigenvalues --   -0.29226  -0.28672  -0.28524  -0.27852  -0.27346
 Alpha  occ. eigenvalues --   -0.25956  -0.24957  -0.24283  -0.19495
 Alpha virt. eigenvalues --   -0.12870  -0.07460  -0.06262  -0.04424  -0.03734
 Alpha virt. eigenvalues --   -0.00831  -0.00505  -0.00342  -0.00004   0.00357
 Alpha virt. eigenvalues --    0.00874   0.01071   0.01509   0.01740   0.01995

 Mulliken charges:
               1
     1  C    0.285139
     2  C    0.020716
     3  C    0.216358
     4  C    0.207868
     5  C    0.225711
     6  C    0.058414
     7  C    0.177847
     8  C    0.121580
     9  C    0.262799
    10  C   -0.286937
    11  C    0.289307
    12  C    0.084310
    13  C   -0.473842
    14  C   -0.613015
    15  H    0.158207
    16  H    0.160771
    17  H    0.162879
    18  N   -0.124008
    19  N   -0.141871
    20  O   -0.283834
    21  O   -0.268942
    22  O   -0.280813
    23  O   -0.220145
    24  C   -0.184487
    25  H    0.175050
    26  H    0.176877
    27  H    0.182201
    28  C   -0.195286
    29  H    0.172622
    30  H    0.174491
    31  H    0.182364
    32  C   -0.078514
    33  C   -0.717959
    34  S   -0.603305
    35  C   -0.218267
    36  H    0.136303
    37  C    0.802769
    38  O   -0.137564
    39  C    0.879157
    40  C   -0.227018
    41  C   -0.004393
    42  S   -0.250580
    43  H    0.167123
    44  H    0.149429
    45  H    0.149755
    46  C   -0.579531
    47  O   -0.125884
    48  C   -0.276098
    49  H    0.132294
    50  C   -0.242252
    51  H    0.161774
    52  H    0.146253
    53  H    0.167733
    54  H    0.146446
 Sum of Mulliken charges =  -0.00000

 Dipole moment (field-independent basis, Debye):
    X=              4.7750    Y=             -0.6712    Z=              0.2362  Tot=              4.8278
 Quadrupole moment (field-independent basis, Debye-Ang):
   XX=           -213.0085   YY=           -218.4251   ZZ=           -216.0014
   XY=             10.9236   XZ=             10.1861   YZ=             13.5103

 Normal termination of Gaussian 16 at Sun Nov 29 15:48:51 2020.
