 Gaussian 16, Revision C.01,
 Gaussian 16:  ES64L-G16RevC.01  3-Jul-2019

 -------------------------------------
 # opt=modredundant b3lyp/6-311+g(d,p)
 -------------------------------------

 ----------
 NDI_-5.pdb
 ----------
 Symbolic Z-matrix:
 Charge =  0 Multiplicity = 1

 SCF Done:  E(RB3LYP) =  -2359.32328299     A.U. after   16 cycles
 SCF Done:  E(RB3LYP) =  -2359.31388021     A.U. after   17 cycles
 SCF Done:  E(RB3LYP) =  -2359.33189303     A.U. after   15 cycles
 SCF Done:  E(RB3LYP) =  -2359.33480886     A.U. after   17 cycles
 SCF Done:  E(RB3LYP) =  -2359.33501410     A.U. after   14 cycles
 SCF Done:  E(RB3LYP) =  -2359.33526582     A.U. after   13 cycles
 SCF Done:  E(RB3LYP) =  -2359.33530923     A.U. after   13 cycles
 SCF Done:  E(RB3LYP) =  -2359.33532364     A.U. after   12 cycles
 SCF Done:  E(RB3LYP) =  -2359.33532895     A.U. after   12 cycles
 SCF Done:  E(RB3LYP) =  -2359.33533066     A.U. after   11 cycles
 SCF Done:  E(RB3LYP) =  -2359.33533148     A.U. after   10 cycles
 SCF Done:  E(RB3LYP) =  -2359.33533176     A.U. after   10 cycles
 SCF Done:  E(RB3LYP) =  -2359.33533182     A.U. after    9 cycles
 SCF Done:  E(RB3LYP) =  -2359.33533184     A.U. after    9 cycles
 Optimization completed.
    -- Stationary point found.

                         Standard orientation:
 ---------------------------------------------------------------------
 Center     Atomic      Atomic             Coordinates (Angstroms)
 Number     Number       Type             X           Y           Z
 ---------------------------------------------------------------------
      1          6           0       -2.374671   -3.037385   -0.003137
      2          6           0       -2.160751   -1.566108    0.026941
      3          6           0       -3.255191   -0.676743   -0.064044
      4          6           0       -4.566085   -1.172894   -0.196434
      5          6           0       -4.816968   -2.637974   -0.248229
      6          6           0       -0.888480   -1.079784    0.118445
      7          6           0       -2.996328    0.719873    0.009767
      8          6           0       -1.658379    1.224742    0.124685
      9          6           0       -0.555591    0.314017    0.131608
     10          6           0       -1.525507    2.675018    0.411348
     11          6           0       -3.970432    3.042808    0.079974
     12          6           0       -4.123584    1.579835   -0.044265
     13          6           0       -5.409062    1.074959   -0.193831
     14          6           0       -5.640038   -0.298923   -0.271804
     15          1           0       -6.640278   -0.697841   -0.378914
     16          1           0       -6.228371    1.781253   -0.238126
     17          1           0       -0.104009   -1.823809    0.147806
     18          7           0       -2.675339    3.483607    0.344971
     19          7           0       -3.694757   -3.477502   -0.138020
     20          8           0       -1.461559   -3.839421    0.074343
     21          8           0       -5.935996   -3.098298   -0.374620
     22          8           0       -4.907823    3.817662   -0.012941
     23          8           0       -0.475722    3.228873    0.701567
     24          6           0       -2.467743    4.917846    0.590298
     25          1           0       -2.048200    5.065838    1.585244
     26          1           0       -1.767757    5.322631   -0.141114
     27          1           0       -3.431759    5.408918    0.503609
     28          6           0       -3.897238   -4.932620   -0.176980
     29          1           0       -3.331104   -5.360421   -1.004534
     30          1           0       -3.541137   -5.379115    0.751861
     31          1           0       -4.958891   -5.118382   -0.304806
     32          6           0        0.873280    0.587636   -0.001401
     33          6           0        1.594757    1.744423   -0.257484
     34         16           0        2.006443   -0.762809    0.201841
     35          6           0        2.982640    1.552660   -0.319524
     36          1           0        1.127092    2.701233   -0.387444
     37          6           0        3.400546    0.240813   -0.082675
     38          8           0        3.915457    2.504096   -0.580400
     39          6           0        4.742625   -0.261280   -0.057659
     40          6           0        3.479450    3.859776   -0.678018
     41          6           0        5.156120   -1.570408    0.179569
     42         16           0        6.153291    0.755044   -0.335717
     43          1           0        4.381927    4.452046   -0.817274
     44          1           0        2.816474    3.996994   -1.537839
     45          1           0        2.966911    4.173403    0.235948
     46          6           0        6.565083   -1.750694    0.139732
     47          8           0        4.226578   -2.525681    0.422640
     48          6           0        7.221649   -0.580879   -0.127861
     49          1           0        7.067651   -2.693178    0.299978
     50          6           0        4.668626   -3.865868    0.628065
     51          1           0        8.286919   -0.430648   -0.215194
     52          1           0        5.311969   -3.935787    1.510710
     53          1           0        3.767281   -4.454303    0.787545
     54          1           0        5.200359   -4.242241   -0.251304
 ---------------------------------------------------------------------

 The electronic state is 1-A.
 Alpha  occ. eigenvalues --  -88.88954 -88.88659 -19.17724 -19.17188 -19.12123
 Alpha  occ. eigenvalues --  -19.12121 -19.11409 -19.11264 -14.38319 -14.37771
 Alpha  occ. eigenvalues --  -10.30710 -10.30584 -10.30351 -10.29808 -10.25522
 Alpha  occ. eigenvalues --  -10.24925 -10.24229 -10.24075 -10.23658 -10.23072
 Alpha  occ. eigenvalues --  -10.22633 -10.22553 -10.22314 -10.22288 -10.21983
 Alpha  occ. eigenvalues --  -10.21779 -10.21761 -10.21655 -10.21412 -10.21162
 Alpha  occ. eigenvalues --  -10.20824 -10.20498 -10.20472 -10.20419 -10.19507
 Alpha  occ. eigenvalues --  -10.18760  -7.97504  -7.97237  -5.93813  -5.93556
 Alpha  occ. eigenvalues --   -5.93424  -5.93161  -5.93072  -5.92778  -1.09316
 Alpha  occ. eigenvalues --   -1.08752  -1.08393  -1.07923  -1.06571  -1.05922
 Alpha  occ. eigenvalues --   -0.95961  -0.95325  -0.92006  -0.90741  -0.89131
 Alpha  occ. eigenvalues --   -0.86365  -0.83801  -0.80487  -0.78222  -0.77859
 Alpha  occ. eigenvalues --   -0.76733  -0.75660  -0.74877  -0.73565  -0.72208
 Alpha  occ. eigenvalues --   -0.71771  -0.70649  -0.68862  -0.66934  -0.65551
 Alpha  occ. eigenvalues --   -0.65451  -0.64387  -0.61359  -0.60144  -0.58547
 Alpha  occ. eigenvalues --   -0.57279  -0.56855  -0.56662  -0.55377  -0.54937
 Alpha  occ. eigenvalues --   -0.53280  -0.51426  -0.50442  -0.49815  -0.49486
 Alpha  occ. eigenvalues --   -0.49235  -0.49215  -0.48655  -0.48594  -0.48400
 Alpha  occ. eigenvalues --   -0.48166  -0.47048  -0.46474  -0.46106  -0.46000
 Alpha  occ. eigenvalues --   -0.45700  -0.44703  -0.44243  -0.43955  -0.43128
 Alpha  occ. eigenvalues --   -0.43042  -0.42624  -0.42450  -0.42053  -0.41860
 Alpha  occ. eigenvalues --   -0.41569  -0.41037  -0.40952  -0.40296  -0.39924
 Alpha  occ. eigenvalues --   -0.39346  -0.39101  -0.38948  -0.37797  -0.37358
 Alpha  occ. eigenvalues --   -0.36664  -0.36322  -0.34735  -0.34439  -0.33615
 Alpha  occ. eigenvalues --   -0.33467  -0.31777  -0.30746  -0.30459  -0.29590
 Alpha  occ. eigenvalues --   -0.29147  -0.28526  -0.28506  -0.27692  -0.27244
 Alpha  occ. eigenvalues --   -0.26025  -0.25046  -0.24957  -0.19822
 Alpha virt. eigenvalues --   -0.12742  -0.08001  -0.06246  -0.04203  -0.03553
 Alpha virt. eigenvalues --   -0.00854  -0.00410  -0.00283  -0.00107   0.00389
 Alpha virt. eigenvalues --    0.00884   0.01347   0.01401   0.01877   0.01903

 Mulliken charges:
               1
     1  C    0.279958
     2  C    0.076568
     3  C    0.213590
     4  C    0.283926
     5  C    0.241418
     6  C    0.152822
     7  C    0.234185
     8  C    0.273315
     9  C    0.245165
    10  C   -0.781909
    11  C    0.194715
    12  C    0.170373
    13  C   -0.493649
    14  C   -0.629928
    15  H    0.157718
    16  H    0.161270
    17  H    0.164807
    18  N   -0.124503
    19  N   -0.141088
    20  O   -0.287099
    21  O   -0.268742
    22  O   -0.281354
    23  O   -0.267242
    24  C   -0.163450
    25  H    0.177388
    26  H    0.168567
    27  H    0.183017
    28  C   -0.194947
    29  H    0.173397
    30  H    0.172877
    31  H    0.181496
    32  C   -0.004090
    33  C    0.074491
    34  S   -0.648169
    35  C   -0.831255
    36  H    0.168570
    37  C    0.485902
    38  O   -0.126902
    39  C    1.032633
    40  C   -0.247496
    41  C    0.034721
    42  S   -0.224734
    43  H    0.166049
    44  H    0.146561
    45  H    0.164538
    46  C   -0.546570
    47  O   -0.126406
    48  C   -0.313217
    49  H    0.134055
    50  C   -0.242429
    51  H    0.163913
    52  H    0.145584
    53  H    0.173936
    54  H    0.147653
 Sum of Mulliken charges =  -0.00000

 Dipole moment (field-independent basis, Debye):
    X=              5.9506    Y=             -0.8067    Z=             -0.1522  Tot=              6.0069
 Quadrupole moment (field-independent basis, Debye-Ang):
   XX=           -214.9451   YY=           -207.7642   ZZ=           -223.3813
   XY=             -4.9238   XZ=             -1.4177   YZ=             -5.0913

 Normal termination of Gaussian 16 at Sun Nov 29 13:31:32 2020.
