 Gaussian 16, Revision C.01,
 Gaussian 16:  ES64L-G16RevC.01  3-Jul-2019

 -------------------------------------
 # opt=modredundant b3lyp/6-311+g(d,p)
 -------------------------------------

 ----------
 NDI_85.pdb
 ----------
 Symbolic Z-matrix:
 Charge =  0 Multiplicity = 1

 SCF Done:  E(RB3LYP) =  -2359.32944830     A.U. after   20 cycles
 SCF Done:  E(RB3LYP) =  -2359.33300962     A.U. after   15 cycles
 SCF Done:  E(RB3LYP) =  -2359.33395189     A.U. after   15 cycles
 SCF Done:  E(RB3LYP) =  -2359.33413995     A.U. after   15 cycles
 SCF Done:  E(RB3LYP) =  -2359.33426664     A.U. after   14 cycles
 SCF Done:  E(RB3LYP) =  -2359.33430463     A.U. after   12 cycles
 SCF Done:  E(RB3LYP) =  -2359.33431905     A.U. after   13 cycles
 SCF Done:  E(RB3LYP) =  -2359.33432435     A.U. after   11 cycles
 SCF Done:  E(RB3LYP) =  -2359.33432649     A.U. after   10 cycles
 SCF Done:  E(RB3LYP) =  -2359.33432701     A.U. after   10 cycles
 SCF Done:  E(RB3LYP) =  -2359.33432721     A.U. after    9 cycles
 Optimization completed.
    -- Stationary point found.

                         Standard orientation:
 ---------------------------------------------------------------------
 Center     Atomic      Atomic             Coordinates (Angstroms)
 Number     Number       Type             X           Y           Z
 ---------------------------------------------------------------------
      1          6           0       -3.096649   -2.867158    0.433543
      2          6           0       -2.538500   -1.495247    0.297683
      3          6           0       -3.389747   -0.404781    0.015852
      4          6           0       -4.779549   -0.599893   -0.151259
      5          6           0       -5.369435   -1.961145   -0.028005
      6          6           0       -1.184859   -1.289933    0.443866
      7          6           0       -2.830202    0.896019   -0.109402
      8          6           0       -1.430683    1.092902    0.058685
      9          6           0       -0.604835    0.000512    0.348186
     10          6           0       -0.879064    2.472556   -0.108273
     11          6           0       -3.168143    3.351302   -0.578016
     12          6           0       -3.698128    1.973711   -0.412237
     13          6           0       -5.056605    1.760320   -0.570565
     14          6           0       -5.601276    0.474510   -0.438931
     15          1           0       -6.662899    0.303374   -0.564427
     16          1           0       -5.687293    2.609212   -0.802522
     17          1           0       -0.547301   -2.138533    0.657331
     18          7           0       -1.787140    3.499062   -0.428989
     19          7           0       -4.478423   -3.009527    0.250978
     20          8           0       -2.407320   -3.834102    0.695651
     21          8           0       -6.561577   -2.161603   -0.161921
     22          8           0       -3.890640    4.297313   -0.833529
     23          8           0        0.296799    2.746327    0.014666
     24          6           0       -1.204651    4.839321   -0.594827
     25          1           0       -0.710598    5.144231    0.327852
     26          1           0       -0.461245    4.820307   -1.391664
     27          1           0       -2.010369    5.523843   -0.839745
     28          6           0       -5.014794   -4.372115    0.384603
     29          1           0       -4.524688   -5.030254   -0.332746
     30          1           0       -4.818273   -4.749197    1.388607
     31          1           0       -6.082954   -4.330448    0.197166
     32          6           0        0.859558    0.079474    0.557440
     33          6           0        1.530082    0.375571    1.712025
     34         16           0        1.946638   -0.421875   -0.704357
     35          6           0        2.937407    0.228366    1.579347
     36          1           0        1.032302    0.701664    2.613701
     37          6           0        3.353211   -0.197280    0.327822
     38          8           0        3.866225    0.482344    2.543436
     39          6           0        4.700440   -0.419008   -0.135864
     40          6           0        3.403713    0.800299    3.850517
     41          6           0        5.108183   -0.874451   -1.381037
     42         16           0        6.114940   -0.123793    0.866444
     43          1           0        4.296075    0.922942    4.462076
     44          1           0        2.832549    1.734675    3.852476
     45          1           0        2.789879   -0.008761    4.260447
     46          6           0        6.519221   -0.985104   -1.530456
     47          8           0        4.170056   -1.171733   -2.324539
     48          6           0        7.185067   -0.612688   -0.396558
     49          1           0        7.015794   -1.323293   -2.428270
     50          6           0        4.621127   -1.600519   -3.603521
     51          1           0        8.251038   -0.601578   -0.229419
     52          1           0        5.188293   -2.534534   -3.530949
     53          1           0        3.723813   -1.768984   -4.196690
     54          1           0        5.235907   -0.832334   -4.084331
 ---------------------------------------------------------------------

 The electronic state is 1-A.
 Alpha  occ. eigenvalues --  -88.87722 -88.87394 -19.16167 -19.16118 -19.12871
 Alpha  occ. eigenvalues --  -19.12802 -19.12529 -19.12447 -14.39001 -14.38694
 Alpha  occ. eigenvalues --  -10.31496 -10.31280 -10.31178 -10.31132 -10.23917
 Alpha  occ. eigenvalues --  -10.23661 -10.23571 -10.23506 -10.23461 -10.23278
 Alpha  occ. eigenvalues --  -10.23227 -10.23188 -10.22922 -10.22860 -10.22843
 Alpha  occ. eigenvalues --  -10.21904 -10.21851 -10.21822 -10.21384 -10.21335
 Alpha  occ. eigenvalues --  -10.21072 -10.20877 -10.20721 -10.19876 -10.18240
 Alpha  occ. eigenvalues --  -10.18022  -7.96263  -7.95948  -5.92589  -5.92258
 Alpha  occ. eigenvalues --   -5.92196  -5.91870  -5.91804  -5.91517  -1.09109
 Alpha  occ. eigenvalues --   -1.08911  -1.07694  -1.07618  -1.07310  -1.07079
 Alpha  occ. eigenvalues --   -0.96675  -0.96308  -0.93073  -0.89702  -0.88209
 Alpha  occ. eigenvalues --   -0.86848  -0.84860  -0.80491  -0.78999  -0.77137
 Alpha  occ. eigenvalues --   -0.75832  -0.75587  -0.74485  -0.72998  -0.72488
 Alpha  occ. eigenvalues --   -0.71827  -0.69814  -0.68634  -0.67545  -0.66395
 Alpha  occ. eigenvalues --   -0.65895  -0.65028  -0.60840  -0.59466  -0.58575
 Alpha  occ. eigenvalues --   -0.57814  -0.56522  -0.55697  -0.55521  -0.54046
 Alpha  occ. eigenvalues --   -0.53886  -0.52105  -0.50612  -0.50236  -0.50090
 Alpha  occ. eigenvalues --   -0.49165  -0.49016  -0.48858  -0.48073  -0.47844
 Alpha  occ. eigenvalues --   -0.47688  -0.47471  -0.46988  -0.46632  -0.45570
 Alpha  occ. eigenvalues --   -0.45354  -0.45052  -0.44891  -0.44623  -0.44087
 Alpha  occ. eigenvalues --   -0.43033  -0.42847  -0.42455  -0.42020  -0.41846
 Alpha  occ. eigenvalues --   -0.41536  -0.41238  -0.40983  -0.40716  -0.40230
 Alpha  occ. eigenvalues --   -0.39982  -0.38893  -0.38249  -0.37807  -0.36889
 Alpha  occ. eigenvalues --   -0.35812  -0.35540  -0.33657  -0.33293  -0.33114
 Alpha  occ. eigenvalues --   -0.32803  -0.32724  -0.31418  -0.30548  -0.30034
 Alpha  occ. eigenvalues --   -0.29505  -0.29377  -0.28922  -0.28690  -0.27152
 Alpha  occ. eigenvalues --   -0.26751  -0.24142  -0.23842  -0.18619
 Alpha virt. eigenvalues --   -0.13545  -0.07272  -0.06162  -0.05098  -0.04395
 Alpha virt. eigenvalues --   -0.01117  -0.00034  -0.00009   0.00210   0.00493
 Alpha virt. eigenvalues --    0.00713   0.00802   0.01033   0.01152   0.01728

 Mulliken charges:
               1
     1  C    0.404656
     2  C    0.008513
     3  C    0.219214
     4  C    0.195398
     5  C    0.266627
     6  C   -0.602191
     7  C    0.186981
     8  C    0.050268
     9  C    0.559113
    10  C   -0.449042
    11  C    0.193515
    12  C    0.184586
    13  C   -0.496658
    14  C   -0.619411
    15  H    0.161962
    16  H    0.162857
    17  H    0.170476
    18  N   -0.167690
    19  N   -0.146761
    20  O   -0.268414
    21  O   -0.268819
    22  O   -0.269391
    23  O   -0.086902
    24  C   -0.214318
    25  H    0.175772
    26  H    0.178709
    27  H    0.183935
    28  C   -0.200344
    29  H    0.175564
    30  H    0.175956
    31  H    0.182740
    32  C    0.097939
    33  C   -0.447521
    34  S   -0.191739
    35  C   -0.082118
    36  H    0.111836
    37  C    0.364055
    38  O   -0.139771
    39  C    0.773069
    40  C   -0.224176
    41  C    0.018534
    42  S   -0.281034
    43  H    0.164687
    44  H    0.146086
    45  H    0.146411
    46  C   -0.532582
    47  O   -0.147704
    48  C   -0.319204
    49  H    0.128318
    50  C   -0.237368
    51  H    0.156561
    52  H    0.141655
    53  H    0.162420
    54  H    0.144745
 Sum of Mulliken charges =  -0.00000

 Dipole moment (field-independent basis, Debye):
    X=              1.2804    Y=             -0.1691    Z=              0.0203  Tot=              1.2917
 Quadrupole moment (field-independent basis, Debye-Ang):
   XX=           -222.1176   YY=           -230.9212   ZZ=           -198.8321
   XY=             -0.5248   XZ=             -9.2115   YZ=             10.1434

 Normal termination of Gaussian 16 at Sun Nov 29 11:56:27 2020.
