 Gaussian 16, Revision C.01,
 Gaussian 16:  ES64L-G16RevC.01  3-Jul-2019

 -------------------------------------
 # opt=modredundant b3lyp/6-311+g(d,p)
 -------------------------------------

 -----------
 NDI_160.pdb
 -----------
 Symbolic Z-matrix:
 Charge =  0 Multiplicity = 1

 SCF Done:  E(RB3LYP) =  -2359.30329484     A.U. after   18 cycles
 SCF Done:  E(RB3LYP) =  -2359.32275917     A.U. after   17 cycles
 SCF Done:  E(RB3LYP) =  -2359.33099919     A.U. after   16 cycles
 SCF Done:  E(RB3LYP) =  -2359.33385193     A.U. after   15 cycles
 SCF Done:  E(RB3LYP) =  -2359.33463320     A.U. after   13 cycles
 SCF Done:  E(RB3LYP) =  -2359.33475914     A.U. after   16 cycles
 SCF Done:  E(RB3LYP) =  -2359.33509919     A.U. after   13 cycles
 SCF Done:  E(RB3LYP) =  -2359.33520827     A.U. after   13 cycles
 SCF Done:  E(RB3LYP) =  -2359.33528674     A.U. after   14 cycles
 SCF Done:  E(RB3LYP) =  -2359.33533353     A.U. after   13 cycles
 SCF Done:  E(RB3LYP) =  -2359.33543870     A.U. after   13 cycles
 SCF Done:  E(RB3LYP) =  -2359.33544789     A.U. after   12 cycles
 SCF Done:  E(RB3LYP) =  -2359.33545062     A.U. after   12 cycles
 SCF Done:  E(RB3LYP) =  -2359.33545395     A.U. after   12 cycles
 SCF Done:  E(RB3LYP) =  -2359.33545422     A.U. after   12 cycles
 SCF Done:  E(RB3LYP) =  -2359.33545511     A.U. after   12 cycles
 SCF Done:  E(RB3LYP) =  -2359.33545525     A.U. after   12 cycles
 SCF Done:  E(RB3LYP) =  -2359.33545541     A.U. after   11 cycles
 Optimization completed.
    -- Stationary point found.

                         Standard orientation:
 ---------------------------------------------------------------------
 Center     Atomic      Atomic             Coordinates (Angstroms)
 Number     Number       Type             X           Y           Z
 ---------------------------------------------------------------------
      1          6           0       -3.412263   -2.723725   -0.268287
      2          6           0       -2.717794   -1.429562   -0.038711
      3          6           0       -3.428202   -0.210344   -0.121815
      4          6           0       -4.804115   -0.201326   -0.424174
      5          6           0       -5.529449   -1.476868   -0.666046
      6          6           0       -1.374852   -1.426737    0.226609
      7          6           0       -2.725117    1.001096    0.120923
      8          6           0       -1.326691    0.991330    0.412295
      9          6           0       -0.614823   -0.234699    0.436610
     10          6           0       -0.710427    2.275719    0.826229
     11          6           0       -2.824576    3.508957    0.350864
     12          6           0       -3.467659    2.207583    0.062845
     13          6           0       -4.820907    2.197990   -0.245466
     14          6           0       -5.495009    0.998666   -0.492360
     15          1           0       -6.551294    0.986324   -0.727935
     16          1           0       -5.341589    3.146523   -0.282407
     17          1           0       -0.872909   -2.383020    0.217954
     18          7           0       -1.489307    3.444599    0.749724
     19          7           0       -4.777355   -2.661145   -0.566011
     20          8           0       -2.842618   -3.798753   -0.208194
     21          8           0       -6.715334   -1.506255   -0.935486
     22          8           0       -3.420549    4.569497    0.269386
     23          8           0        0.433227    2.374015    1.235934
     24          6           0       -0.815307    4.691481    1.138620
     25          1           0       -0.472926    4.619201    2.170910
     26          1           0        0.053246    4.857153    0.500819
     27          1           0       -1.529070    5.501508    1.027092
     28          6           0       -5.454523   -3.945567   -0.794530
     29          1           0       -4.971165   -4.474661   -1.615927
     30          1           0       -5.385667   -4.563144    0.101455
     31          1           0       -6.492686   -3.737635   -1.033071
     32          6           0        0.827807   -0.461755    0.550930
     33          6           0        1.393766   -1.665974    0.960387
     34         16           0        2.064455    0.577994   -0.113995
     35          6           0        2.777939   -1.743971    0.748353
     36          1           0        0.822545   -2.455543    1.424741
     37          6           0        3.317530   -0.616710    0.124432
     38          8           0        3.599587   -2.771592    1.093454
     39          6           0        4.686225   -0.396709   -0.247237
     40          6           0        3.004116   -3.958112    1.609819
     41          6           0        5.229776    0.723680   -0.870119
     42         16           0        5.959617   -1.579736    0.035995
     43          1           0        3.823063   -4.655396    1.776703
     44          1           0        2.494992   -3.762736    2.559297
     45          1           0        2.297455   -4.388330    0.892773
     46          6           0        6.628055    0.635407   -1.110236
     47          8           0        4.421744    1.765422   -1.187557
     48          6           0        7.147302   -0.552026   -0.673657
     49          1           0        7.219277    1.406832   -1.581345
     50          6           0        5.008199    2.915420   -1.790735
     51          1           0        8.173545   -0.881485   -0.730127
     52          1           0        5.460128    2.666188   -2.756108
     53          1           0        4.192555    3.619621   -1.943004
     54          1           0        5.759519    3.364156   -1.133357
 ---------------------------------------------------------------------

 The electronic state is 1-A.
 Alpha  occ. eigenvalues --  -88.88630 -88.88276 -19.17403 -19.17103 -19.12263
 Alpha  occ. eigenvalues --  -19.12250 -19.11438 -19.11383 -14.38440 -14.37805
 Alpha  occ. eigenvalues --  -10.30841 -10.30727 -10.30171 -10.30012 -10.25137
 Alpha  occ. eigenvalues --  -10.24696 -10.24074 -10.23865 -10.23757 -10.22581
 Alpha  occ. eigenvalues --  -10.22515 -10.22302 -10.22164 -10.22157 -10.21976
 Alpha  occ. eigenvalues --  -10.21938 -10.21927 -10.21633 -10.21310 -10.21252
 Alpha  occ. eigenvalues --  -10.20913 -10.20724 -10.20664 -10.20436 -10.19323
 Alpha  occ. eigenvalues --  -10.19209  -7.97182  -7.96798  -5.93492  -5.93120
 Alpha  occ. eigenvalues --   -5.93102  -5.92751  -5.92713  -5.92349  -1.09003
 Alpha  occ. eigenvalues --   -1.08662  -1.08508  -1.07930  -1.06696  -1.06011
 Alpha  occ. eigenvalues --   -0.96067  -0.95402  -0.92142  -0.90497  -0.88942
 Alpha  occ. eigenvalues --   -0.86462  -0.83941  -0.80492  -0.78141  -0.77715
 Alpha  occ. eigenvalues --   -0.76638  -0.75578  -0.74940  -0.73430  -0.72313
 Alpha  occ. eigenvalues --   -0.71417  -0.70717  -0.68895  -0.66896  -0.65675
 Alpha  occ. eigenvalues --   -0.65341  -0.64683  -0.61003  -0.60072  -0.58551
 Alpha  occ. eigenvalues --   -0.57335  -0.56751  -0.56509  -0.55238  -0.54759
 Alpha  occ. eigenvalues --   -0.53653  -0.51431  -0.50146  -0.49909  -0.49453
 Alpha  occ. eigenvalues --   -0.49265  -0.49005  -0.48671  -0.48657  -0.48324
 Alpha  occ. eigenvalues --   -0.48180  -0.46963  -0.46541  -0.46155  -0.45914
 Alpha  occ. eigenvalues --   -0.45636  -0.44843  -0.44403  -0.44134  -0.43607
 Alpha  occ. eigenvalues --   -0.43000  -0.42386  -0.42241  -0.41919  -0.41817
 Alpha  occ. eigenvalues --   -0.41648  -0.41159  -0.41004  -0.40430  -0.39792
 Alpha  occ. eigenvalues --   -0.39400  -0.39165  -0.38848  -0.37713  -0.37249
 Alpha  occ. eigenvalues --   -0.36598  -0.36130  -0.34475  -0.34251  -0.33588
 Alpha  occ. eigenvalues --   -0.33450  -0.31788  -0.30762  -0.30298  -0.29651
 Alpha  occ. eigenvalues --   -0.29224  -0.28643  -0.28508  -0.27821  -0.27324
 Alpha  occ. eigenvalues --   -0.25930  -0.25012  -0.24347  -0.19563
 Alpha virt. eigenvalues --   -0.12835  -0.07574  -0.06232  -0.04373  -0.03716
 Alpha virt. eigenvalues --   -0.00841  -0.00531  -0.00355  -0.00030   0.00352
 Alpha virt. eigenvalues --    0.00895   0.01084   0.01485   0.01803   0.01980

 Mulliken charges:
               1
     1  C    0.293170
     2  C    0.010265
     3  C    0.209330
     4  C    0.217504
     5  C    0.222460
     6  C    0.106906
     7  C    0.154526
     8  C    0.186346
     9  C    0.290158
    10  C   -0.367231
    11  C    0.292328
    12  C    0.092160
    13  C   -0.473119
    14  C   -0.616073
    15  H    0.158015
    16  H    0.160674
    17  H    0.158536
    18  N   -0.109677
    19  N   -0.143332
    20  O   -0.285675
    21  O   -0.268082
    22  O   -0.280745
    23  O   -0.222068
    24  C   -0.181888
    25  H    0.177529
    26  H    0.174023
    27  H    0.182202
    28  C   -0.194485
    29  H    0.173561
    30  H    0.173148
    31  H    0.182200
    32  C   -0.095180
    33  C   -0.653922
    34  S   -0.623262
    35  C   -0.258997
    36  H    0.133138
    37  C    0.775373
    38  O   -0.135803
    39  C    0.875185
    40  C   -0.226386
    41  C   -0.023144
    42  S   -0.249094
    43  H    0.167182
    44  H    0.146302
    45  H    0.153492
    46  C   -0.569570
    47  O   -0.123368
    48  C   -0.277978
    49  H    0.132583
    50  C   -0.242824
    51  H    0.162184
    52  H    0.145562
    53  H    0.167916
    54  H    0.147947
 Sum of Mulliken charges =  -0.00000

 Dipole moment (field-independent basis, Debye):
    X=              4.9931    Y=             -0.7902    Z=             -0.5454  Tot=              5.0846
 Quadrupole moment (field-independent basis, Debye-Ang):
   XX=           -212.3022   YY=           -216.1019   ZZ=           -218.8589
   XY=             11.0585   XZ=            -10.9730   YZ=            -11.0307

 Normal termination of Gaussian 16 at Sun Nov 29 17:40:39 2020.
