 Gaussian 16, Revision C.01,
 Gaussian 16:  ES64L-G16RevC.01  3-Jul-2019

 -------------------------------------
 # opt=modredundant b3lyp/6-311+g(d,p)
 -------------------------------------

 ----------
 NDI_35.pdb
 ----------
 Symbolic Z-matrix:
 Charge =  0 Multiplicity = 1

 SCF Done:  E(RB3LYP) =  -2359.33198103     A.U. after   17 cycles
 SCF Done:  E(RB3LYP) =  -2359.32255725     A.U. after   18 cycles
 SCF Done:  E(RB3LYP) =  -2359.33234242     A.U. after   15 cycles
 SCF Done:  E(RB3LYP) =  -2359.33645657     A.U. after   16 cycles
 SCF Done:  E(RB3LYP) =  -2359.33735920     A.U. after   16 cycles
 SCF Done:  E(RB3LYP) =  -2359.33780832     A.U. after   14 cycles
 SCF Done:  E(RB3LYP) =  -2359.33785276     A.U. after   14 cycles
 SCF Done:  E(RB3LYP) =  -2359.33795154     A.U. after   12 cycles
 SCF Done:  E(RB3LYP) =  -2359.33796287     A.U. after   13 cycles
 SCF Done:  E(RB3LYP) =  -2359.33796869     A.U. after   11 cycles
 SCF Done:  E(RB3LYP) =  -2359.33796986     A.U. after   11 cycles
 SCF Done:  E(RB3LYP) =  -2359.33797069     A.U. after   11 cycles
 SCF Done:  E(RB3LYP) =  -2359.33797088     A.U. after   10 cycles
 SCF Done:  E(RB3LYP) =  -2359.33797093     A.U. after    9 cycles
 Optimization completed.
    -- Stationary point found.

                         Standard orientation:
 ---------------------------------------------------------------------
 Center     Atomic      Atomic             Coordinates (Angstroms)
 Number     Number       Type             X           Y           Z
 ---------------------------------------------------------------------
      1          6           0       -2.567174   -2.985888    0.430771
      2          6           0       -2.257971   -1.543640    0.241325
      3          6           0       -3.299674   -0.598172    0.101020
      4          6           0       -4.646976   -1.011083    0.129911
      5          6           0       -4.992808   -2.446259    0.313449
      6          6           0       -0.951759   -1.135467    0.211293
      7          6           0       -2.958000    0.769331   -0.093769
      8          6           0       -1.591216    1.189399   -0.115467
      9          6           0       -0.560494    0.230989    0.068398
     10          6           0       -1.318468    2.609408   -0.464313
     11          6           0       -3.762607    3.115448   -0.539939
     12          6           0       -4.025833    1.684832   -0.273673
     13          6           0       -5.346735    1.261102   -0.230834
     14          6           0       -5.665169   -0.083970   -0.026787
     15          1           0       -6.693418   -0.420625   -0.000454
     16          1           0       -6.123600    2.002071   -0.370745
     17          1           0       -0.192695   -1.892761    0.356917
     18          7           0       -2.418217    3.467232   -0.659491
     19          7           0       -3.919464   -3.344538    0.437446
     20          8           0       -1.704751   -3.830790    0.586088
     21          8           0       -6.145525   -2.833461    0.352009
     22          8           0       -4.655353    3.936114   -0.667699
     23          8           0       -0.202685    3.081655   -0.600568
     24          6           0       -2.091936    4.860779   -0.994428
     25          1           0       -1.496513    5.305842   -0.196757
     26          1           0       -1.508314    4.891019   -1.914378
     27          1           0       -3.026667    5.398912   -1.115100
     28          6           0       -4.214374   -4.772479    0.622964
     29          1           0       -3.731345   -5.351037   -0.164467
     30          1           0       -3.825709   -5.108445    1.584826
     31          1           0       -5.291621   -4.898727    0.584062
     32          6           0        0.874258    0.475670    0.192399
     33          6           0        1.570578    1.514313    0.777138
     34         16           0        1.993973   -0.757368   -0.377645
     35          6           0        2.963475    1.324079    0.779568
     36          1           0        1.087630    2.382540    1.190011
     37          6           0        3.387437    0.139496    0.173185
     38          8           0        3.894708    2.181442    1.273627
     39          6           0        4.734809   -0.312877   -0.024221
     40          6           0        3.435947    3.332493    1.978721
     41          6           0        5.153558   -1.506071   -0.605933
     42         16           0        6.143390    0.622631    0.464827
     43          1           0        4.331549    3.857063    2.306547
     44          1           0        2.847638    3.984660    1.325937
     45          1           0        2.839732    3.045527    2.850852
     46          6           0        6.565102   -1.665008   -0.656679
     47          8           0        4.224844   -2.387852   -1.054846
     48          6           0        7.219312   -0.592948   -0.115215
     49          1           0        7.071046   -2.525072   -1.070138
     50          6           0        4.677838   -3.587725   -1.676350
     51          1           0        8.285144   -0.451514   -0.021274
     52          1           0        5.263796   -4.194797   -0.979067
     53          1           0        3.779855   -4.131578   -1.963163
     54          1           0        5.272847   -3.367545   -2.568288
 ---------------------------------------------------------------------

 The electronic state is 1-A.
 Alpha  occ. eigenvalues --  -88.88619 -88.88532 -19.17421 -19.17015 -19.12233
 Alpha  occ. eigenvalues --  -19.12204 -19.11490 -19.11468 -14.38411 -14.37897
 Alpha  occ. eigenvalues --  -10.30829 -10.30676 -10.30404 -10.30061 -10.25099
 Alpha  occ. eigenvalues --  -10.24739 -10.24060 -10.23787 -10.23660 -10.22698
 Alpha  occ. eigenvalues --  -10.22639 -10.22390 -10.22249 -10.22157 -10.21995
 Alpha  occ. eigenvalues --  -10.21988 -10.21976 -10.21678 -10.21266 -10.21217
 Alpha  occ. eigenvalues --  -10.20888 -10.20767 -10.20696 -10.20536 -10.19193
 Alpha  occ. eigenvalues --  -10.18935  -7.97170  -7.97099  -5.93480  -5.93416
 Alpha  occ. eigenvalues --   -5.93090  -5.93026  -5.92738  -5.92645  -1.08984
 Alpha  occ. eigenvalues --   -1.08585  -1.08492  -1.08012  -1.06674  -1.06079
 Alpha  occ. eigenvalues --   -0.96055  -0.95444  -0.92181  -0.90532  -0.88951
 Alpha  occ. eigenvalues --   -0.86480  -0.83986  -0.80435  -0.78236  -0.77800
 Alpha  occ. eigenvalues --   -0.76565  -0.75517  -0.74975  -0.73355  -0.72291
 Alpha  occ. eigenvalues --   -0.71765  -0.70487  -0.68849  -0.66973  -0.65654
 Alpha  occ. eigenvalues --   -0.65487  -0.64506  -0.61193  -0.59993  -0.58529
 Alpha  occ. eigenvalues --   -0.57270  -0.56760  -0.56573  -0.55198  -0.54964
 Alpha  occ. eigenvalues --   -0.53377  -0.51513  -0.50249  -0.49864  -0.49579
 Alpha  occ. eigenvalues --   -0.49288  -0.48987  -0.48623  -0.48519  -0.48373
 Alpha  occ. eigenvalues --   -0.48182  -0.46944  -0.46444  -0.46223  -0.45847
 Alpha  occ. eigenvalues --   -0.45721  -0.44820  -0.44335  -0.44046  -0.43453
 Alpha  occ. eigenvalues --   -0.42867  -0.42631  -0.42337  -0.41971  -0.41816
 Alpha  occ. eigenvalues --   -0.41685  -0.41086  -0.41004  -0.40356  -0.39817
 Alpha  occ. eigenvalues --   -0.39404  -0.39162  -0.39019  -0.37775  -0.37358
 Alpha  occ. eigenvalues --   -0.36582  -0.35913  -0.34507  -0.34145  -0.33742
 Alpha  occ. eigenvalues --   -0.33638  -0.31906  -0.30865  -0.30361  -0.29678
 Alpha  occ. eigenvalues --   -0.29182  -0.28685  -0.28543  -0.27891  -0.27217
 Alpha  occ. eigenvalues --   -0.25995  -0.24864  -0.24697  -0.19570
 Alpha virt. eigenvalues --   -0.12887  -0.07484  -0.06331  -0.04400  -0.03712
 Alpha virt. eigenvalues --   -0.00816  -0.00478  -0.00309  -0.00003   0.00392
 Alpha virt. eigenvalues --    0.00838   0.01193   0.01477   0.01666   0.01882

 Mulliken charges:
               1
     1  C    0.258882
     2  C   -0.044337
     3  C    0.194374
     4  C    0.201442
     5  C    0.226963
     6  C   -0.194395
     7  C    0.227625
     8  C    0.378648
     9  C    0.409219
    10  C   -0.498309
    11  C    0.211042
    12  C    0.150539
    13  C   -0.483731
    14  C   -0.594427
    15  H    0.158162
    16  H    0.160860
    17  H    0.178126
    18  N   -0.137998
    19  N   -0.140728
    20  O   -0.281386
    21  O   -0.269322
    22  O   -0.278190
    23  O   -0.222222
    24  C   -0.192636
    25  H    0.169258
    26  H    0.176151
    27  H    0.182511
    28  C   -0.198387
    29  H    0.173117
    30  H    0.174320
    31  H    0.182175
    32  C   -0.022249
    33  C   -0.523326
    34  S   -0.615938
    35  C   -0.193266
    36  H    0.146009
    37  C    0.757946
    38  O   -0.128689
    39  C    0.826280
    40  C   -0.234732
    41  C   -0.027510
    42  S   -0.251117
    43  H    0.165588
    44  H    0.158002
    45  H    0.148025
    46  C   -0.593514
    47  O   -0.129761
    48  C   -0.274798
    49  H    0.132837
    50  C   -0.241304
    51  H    0.162076
    52  H    0.145835
    53  H    0.169726
    54  H    0.146534
 Sum of Mulliken charges =  -0.00000

 Dipole moment (field-independent basis, Debye):
    X=              4.9958    Y=             -0.7418    Z=              0.2771  Tot=              5.0582
 Quadrupole moment (field-independent basis, Debye-Ang):
   XX=           -217.0437   YY=           -213.3344   ZZ=           -217.1776
   XY=             -4.5408   XZ=             -3.1476   YZ=             14.5634

 Normal termination of Gaussian 16 at Sun Nov 29 14:02:33 2020.
