 Gaussian 16, Revision C.01,
 Gaussian 16:  ES64L-G16RevC.01  3-Jul-2019

 -------------------------------------
 # opt=modredundant b3lyp/6-311+g(d,p)
 -------------------------------------

 -----------
 NDI_100.pdb
 -----------
 Symbolic Z-matrix:
 Charge =  0 Multiplicity = 1

 SCF Done:  E(RB3LYP) =  -2359.33065570     A.U. after   18 cycles
 SCF Done:  E(RB3LYP) =  -2359.33337973     A.U. after   15 cycles
 SCF Done:  E(RB3LYP) =  -2359.33411477     A.U. after   16 cycles
 SCF Done:  E(RB3LYP) =  -2359.33428227     A.U. after   14 cycles
 SCF Done:  E(RB3LYP) =  -2359.33435686     A.U. after   14 cycles
 SCF Done:  E(RB3LYP) =  -2359.33437214     A.U. after   12 cycles
 SCF Done:  E(RB3LYP) =  -2359.33438012     A.U. after   12 cycles
 SCF Done:  E(RB3LYP) =  -2359.33438140     A.U. after   10 cycles
 SCF Done:  E(RB3LYP) =  -2359.33438197     A.U. after   10 cycles
 SCF Done:  E(RB3LYP) =  -2359.33438206     A.U. after   10 cycles
 SCF Done:  E(RB3LYP) =  -2359.33438210     A.U. after    9 cycles
 SCF Done:  E(RB3LYP) =  -2359.33438215     A.U. after    9 cycles
 Optimization completed.
    -- Stationary point found.

                         Standard orientation:
 ---------------------------------------------------------------------
 Center     Atomic      Atomic             Coordinates (Angstroms)
 Number     Number       Type             X           Y           Z
 ---------------------------------------------------------------------
      1          6           0        3.336342   -2.824779    0.052983
      2          6           0        2.669489   -1.499567   -0.051586
      3          6           0        3.420727   -0.311950    0.081801
      4          6           0        4.812708   -0.362512    0.322286
      5          6           0        5.508538   -1.672727    0.445857
      6          6           0        1.311556   -1.431846   -0.271062
      7          6           0        2.760932    0.941736   -0.035849
      8          6           0        1.358562    0.993575   -0.271396
      9          6           0        0.626371   -0.194969   -0.372551
     10          6           0        0.714712    2.330686   -0.452951
     11          6           0        2.901326    3.460498   -0.037136
     12          6           0        3.534079    2.122187    0.088297
     13          6           0        4.895706    2.049523    0.325424
     14          6           0        5.538390    0.808158    0.444170
     15          1           0        6.603358    0.747618    0.629374
     16          1           0        5.452493    2.973613    0.416260
     17          1           0        0.748322   -2.352436   -0.356741
     18          7           0        1.531145    3.468011   -0.307696
     19          7           0        4.714705   -2.821996    0.303638
     20          8           0        2.735027   -3.874616   -0.071127
     21          8           0        6.703664   -1.750587    0.657700
     22          8           0        3.537899    4.491557    0.080933
     23          8           0       -0.459800    2.479867   -0.718318
     24          6           0        0.856779    4.764597   -0.472935
     25          1           0        0.417255    4.827136   -1.468470
     26          1           0        0.056981    4.859210    0.261618
     27          1           0        1.597868    5.544911   -0.332702
     28          6           0        5.358338   -4.139622    0.412547
     29          1           0        4.886462   -4.712873    1.210491
     30          1           0        5.238369   -4.687004   -0.522741
     31          1           0        6.410271   -3.980722    0.627121
     32          6           0       -0.838111   -0.273573   -0.580636
     33          6           0       -1.500789   -0.508873   -1.753812
     34         16           0       -1.934585   -0.140611    0.761891
     35          6           0       -2.911383   -0.562946   -1.580969
     36          1           0       -0.996805   -0.611282   -2.704085
     37          6           0       -3.334272   -0.389539   -0.272966
     38          8           0       -3.834455   -0.754382   -2.564810
     39          6           0       -4.683283   -0.414736    0.236982
     40          6           0       -3.364837   -1.058801   -3.872532
     41          6           0       -5.100649   -0.251199    1.549464
     42         16           0       -6.086811   -0.670899   -0.791170
     43          1           0       -4.254006   -1.216673   -4.480673
     44          1           0       -2.785275   -0.228048   -4.288884
     45          1           0       -2.756911   -1.969746   -3.872670
     46          6           0       -6.510523   -0.328286    1.729309
     47          8           0       -4.172131   -0.042436    2.525813
     48          6           0       -7.165713   -0.551093    0.550903
     49          1           0       -7.013738   -0.224370    2.679586
     50          6           0       -4.634712    0.158258    3.855626
     51          1           0       -8.228601   -0.651304    0.394080
     52          1           0       -5.172769   -0.721247    4.224934
     53          1           0       -3.744348    0.316836    4.461900
     54          1           0       -5.280880    1.039992    3.921360
 ---------------------------------------------------------------------

 The electronic state is 1-A.
 Alpha  occ. eigenvalues --  -88.87589 -88.87361 -19.16130 -19.16121 -19.12892
 Alpha  occ. eigenvalues --  -19.12832 -19.12523 -19.12449 -14.39024 -14.38677
 Alpha  occ. eigenvalues --  -10.31518 -10.31308 -10.31152 -10.31132 -10.23898
 Alpha  occ. eigenvalues --  -10.23641 -10.23528 -10.23521 -10.23476 -10.23300
 Alpha  occ. eigenvalues --  -10.23209 -10.23192 -10.22942 -10.22881 -10.22863
 Alpha  occ. eigenvalues --  -10.21933 -10.21860 -10.21843 -10.21356 -10.21354
 Alpha  occ. eigenvalues --  -10.21047 -10.20835 -10.20678 -10.19838 -10.18264
 Alpha  occ. eigenvalues --  -10.17990  -7.96133  -7.95915  -5.92460  -5.92225
 Alpha  occ. eigenvalues --   -5.92068  -5.91837  -5.91670  -5.91485  -1.09131
 Alpha  occ. eigenvalues --   -1.08905  -1.07675  -1.07599  -1.07332  -1.07076
 Alpha  occ. eigenvalues --   -0.96695  -0.96306  -0.93088  -0.89656  -0.88187
 Alpha  occ. eigenvalues --   -0.86842  -0.84873  -0.80495  -0.79012  -0.77112
 Alpha  occ. eigenvalues --   -0.75814  -0.75582  -0.74447  -0.72989  -0.72544
 Alpha  occ. eigenvalues --   -0.71740  -0.69827  -0.68617  -0.67544  -0.66403
 Alpha  occ. eigenvalues --   -0.65879  -0.65060  -0.60811  -0.59467  -0.58565
 Alpha  occ. eigenvalues --   -0.57827  -0.56560  -0.55595  -0.55471  -0.54058
 Alpha  occ. eigenvalues --   -0.53929  -0.52114  -0.50622  -0.50245  -0.50082
 Alpha  occ. eigenvalues --   -0.49137  -0.49022  -0.48873  -0.48071  -0.47821
 Alpha  occ. eigenvalues --   -0.47644  -0.47512  -0.47002  -0.46637  -0.45553
 Alpha  occ. eigenvalues --   -0.45339  -0.45092  -0.44889  -0.44621  -0.44117
 Alpha  occ. eigenvalues --   -0.43074  -0.42822  -0.42455  -0.42026  -0.41797
 Alpha  occ. eigenvalues --   -0.41542  -0.41216  -0.40994  -0.40666  -0.40255
 Alpha  occ. eigenvalues --   -0.39978  -0.38855  -0.38103  -0.37869  -0.36917
 Alpha  occ. eigenvalues --   -0.35832  -0.35509  -0.33674  -0.33203  -0.33089
 Alpha  occ. eigenvalues --   -0.32775  -0.32741  -0.31409  -0.30505  -0.30041
 Alpha  occ. eigenvalues --   -0.29528  -0.29320  -0.28819  -0.28726  -0.27228
 Alpha  occ. eigenvalues --   -0.26777  -0.24143  -0.23759  -0.18595
 Alpha virt. eigenvalues --   -0.13563  -0.07280  -0.06175  -0.05105  -0.04329
 Alpha virt. eigenvalues --   -0.01121  -0.00078  -0.00019   0.00262   0.00545
 Alpha virt. eigenvalues --    0.00623   0.00808   0.01063   0.01162   0.01725

 Mulliken charges:
               1
     1  C    0.385513
     2  C    0.049010
     3  C    0.198997
     4  C    0.211576
     5  C    0.270664
     6  C   -0.620101
     7  C    0.192704
     8  C   -0.068004
     9  C    0.428253
    10  C   -0.311869
    11  C    0.232570
    12  C    0.208316
    13  C   -0.530258
    14  C   -0.629040
    15  H    0.162185
    16  H    0.163295
    17  H    0.163843
    18  N   -0.156417
    19  N   -0.146234
    20  O   -0.267598
    21  O   -0.269499
    22  O   -0.269860
    23  O   -0.116123
    24  C   -0.210092
    25  H    0.176474
    26  H    0.179671
    27  H    0.183929
    28  C   -0.200892
    29  H    0.175942
    30  H    0.175521
    31  H    0.182906
    32  C    0.330599
    33  C   -0.471851
    34  S   -0.158541
    35  C   -0.134913
    36  H    0.111315
    37  C    0.230752
    38  O   -0.135074
    39  C    0.808805
    40  C   -0.225837
    41  C    0.046648
    42  S   -0.288224
    43  H    0.164596
    44  H    0.145227
    45  H    0.148066
    46  C   -0.541729
    47  O   -0.150031
    48  C   -0.322774
    49  H    0.128182
    50  C   -0.234775
    51  H    0.156278
    52  H    0.141946
    53  H    0.162035
    54  H    0.143918
 Sum of Mulliken charges =  -0.00000

 Dipole moment (field-independent basis, Debye):
    X=             -1.2207    Y=             -0.0922    Z=              0.0497  Tot=              1.2251
 Quadrupole moment (field-independent basis, Debye-Ang):
   XX=           -221.2782   YY=           -233.7318   ZZ=           -197.0005
   XY=             -3.3486   XZ=            -10.3812   YZ=              3.4471

 Normal termination of Gaussian 16 at Sun Nov 29 12:16:38 2020.
