 Gaussian 16, Revision C.01,
 Gaussian 16:  ES64L-G16RevC.01  3-Jul-2019

 -------------------------------------
 # opt=modredundant b3lyp/6-311+g(d,p)
 -------------------------------------

 -----------
 NDI_-35.pdb
 -----------
 Symbolic Z-matrix:
 Charge =  0 Multiplicity = 1

 SCF Done:  E(RB3LYP) =  -2359.33777015     A.U. after   17 cycles
 SCF Done:  E(RB3LYP) =  -2359.33796049     A.U. after   13 cycles
 SCF Done:  E(RB3LYP) =  -2359.33813970     A.U. after   13 cycles
 SCF Done:  E(RB3LYP) =  -2359.33824269     A.U. after   13 cycles
 SCF Done:  E(RB3LYP) =  -2359.33824837     A.U. after   12 cycles
 SCF Done:  E(RB3LYP) =  -2359.33825257     A.U. after   11 cycles
 SCF Done:  E(RB3LYP) =  -2359.33825406     A.U. after   11 cycles
 SCF Done:  E(RB3LYP) =  -2359.33825431     A.U. after   10 cycles
 SCF Done:  E(RB3LYP) =  -2359.33825440     A.U. after    9 cycles
 Optimization completed.
    -- Stationary point found.

                         Standard orientation:
 ---------------------------------------------------------------------
 Center     Atomic      Atomic             Coordinates (Angstroms)
 Number     Number       Type             X           Y           Z
 ---------------------------------------------------------------------
      1          6           0        2.595087   -2.993513    0.381626
      2          6           0        2.272281   -1.552649    0.205260
      3          6           0        3.305674   -0.594729    0.088415
      4          6           0        4.657078   -0.991863    0.138721
      5          6           0        5.016326   -2.423336    0.325479
      6          6           0        0.962135   -1.155590    0.181915
      7          6           0        2.952464    0.770716   -0.099870
      8          6           0        1.582189    1.175468   -0.136582
      9          6           0        0.561045    0.208315    0.048959
     10          6           0        1.296310    2.589770   -0.499162
     11          6           0        3.734330    3.131886   -0.502173
     12          6           0        4.011759    1.700754   -0.252375
     13          6           0        5.336492    1.291849   -0.190967
     14          6           0        5.666717   -0.051544    0.007018
     15          1           0        6.698237   -0.376195    0.050626
     16          1           0        6.107306    2.042977   -0.308380
     17          1           0        0.208715   -1.920169    0.319491
     18          7           0        2.387772    3.467741   -0.646168
     19          7           0        3.951287   -3.333975    0.430252
     20          8           0        1.739738   -3.853478    0.484444
     21          8           0        6.172569   -2.797321    0.383218
     22          8           0        4.618197    3.966157   -0.599074
     23          8           0        0.178746    3.037884   -0.690061
     24          6           0        2.050845    4.857968   -0.984045
     25          1           0        1.505721    4.886531   -1.927431
     26          1           0        1.415709    5.285742   -0.207894
     27          1           0        2.980083    5.413360   -1.061506
     28          6           0        4.259309   -4.759844    0.610533
     29          1           0        3.804590   -5.119943    1.533472
     30          1           0        3.850357   -5.333282   -0.221832
     31          1           0        5.338730   -4.865649    0.650288
     32          6           0       -0.872103    0.450061    0.184661
     33          6           0       -1.556922    1.487787    0.783198
     34         16           0       -2.000855   -0.776860   -0.377496
     35          6           0       -2.950814    1.306078    0.794378
     36          1           0       -1.065248    2.350616    1.198253
     37          6           0       -3.385289    0.125290    0.187515
     38          8           0       -3.871720    2.153321    1.323464
     39          6           0       -4.736429   -0.320611    0.001486
     40          6           0       -3.417141    3.416026    1.806068
     41          6           0       -5.165861   -1.508397   -0.583356
     42         16           0       -6.136236    0.619748    0.506152
     43          1           0       -4.310946    3.957455    2.110591
     44          1           0       -2.756422    3.291131    2.670046
     45          1           0       -2.897556    3.971712    1.019718
     46          6           0       -6.578647   -1.659014   -0.625478
     47          8           0       -4.245312   -2.389328   -1.050441
     48          6           0       -7.223036   -0.586600   -0.073173
     49          1           0       -7.092272   -2.513712   -1.040580
     50          6           0       -4.707757   -3.614173   -1.613688
     51          1           0       -8.287357   -0.439864    0.029282
     52          1           0       -5.327221   -3.431198   -2.497382
     53          1           0       -3.814606   -4.164045   -1.904051
     54          1           0       -5.271784   -4.196541   -0.878361
 ---------------------------------------------------------------------

 The electronic state is 1-A.
 Alpha  occ. eigenvalues --  -88.88617 -88.88557 -19.17420 -19.17032 -19.12236
 Alpha  occ. eigenvalues --  -19.12203 -19.11521 -19.11474 -14.38411 -14.37910
 Alpha  occ. eigenvalues --  -10.30831 -10.30675 -10.30410 -10.30090 -10.25095
 Alpha  occ. eigenvalues --  -10.24766 -10.24056 -10.23742 -10.23648 -10.22688
 Alpha  occ. eigenvalues --  -10.22643 -10.22357 -10.22249 -10.22131 -10.22003
 Alpha  occ. eigenvalues --  -10.21988 -10.21982 -10.21688 -10.21265 -10.21230
 Alpha  occ. eigenvalues --  -10.20883 -10.20782 -10.20706 -10.20569 -10.19193
 Alpha  occ. eigenvalues --  -10.18967  -7.97169  -7.97122  -5.93479  -5.93439
 Alpha  occ. eigenvalues --   -5.93089  -5.93050  -5.92737  -5.92669  -1.08981
 Alpha  occ. eigenvalues --   -1.08597  -1.08491  -1.08016  -1.06675  -1.06093
 Alpha  occ. eigenvalues --   -0.96053  -0.95457  -0.92190  -0.90541  -0.88958
 Alpha  occ. eigenvalues --   -0.86488  -0.83994  -0.80440  -0.78245  -0.77799
 Alpha  occ. eigenvalues --   -0.76565  -0.75526  -0.74980  -0.73365  -0.72301
 Alpha  occ. eigenvalues --   -0.71763  -0.70490  -0.68860  -0.66977  -0.65660
 Alpha  occ. eigenvalues --   -0.65491  -0.64508  -0.61201  -0.60000  -0.58529
 Alpha  occ. eigenvalues --   -0.57275  -0.56763  -0.56573  -0.55195  -0.54987
 Alpha  occ. eigenvalues --   -0.53382  -0.51521  -0.50278  -0.49851  -0.49580
 Alpha  occ. eigenvalues --   -0.49283  -0.48987  -0.48643  -0.48505  -0.48383
 Alpha  occ. eigenvalues --   -0.48184  -0.46933  -0.46469  -0.46225  -0.45845
 Alpha  occ. eigenvalues --   -0.45718  -0.44813  -0.44361  -0.44053  -0.43503
 Alpha  occ. eigenvalues --   -0.42873  -0.42588  -0.42372  -0.41956  -0.41844
 Alpha  occ. eigenvalues --   -0.41701  -0.41069  -0.41015  -0.40370  -0.39877
 Alpha  occ. eigenvalues --   -0.39430  -0.39112  -0.39000  -0.37802  -0.37411
 Alpha  occ. eigenvalues --   -0.36585  -0.35933  -0.34506  -0.34194  -0.33773
 Alpha  occ. eigenvalues --   -0.33574  -0.31918  -0.30864  -0.30371  -0.29653
 Alpha  occ. eigenvalues --   -0.29193  -0.28714  -0.28551  -0.27899  -0.27223
 Alpha  occ. eigenvalues --   -0.25992  -0.24862  -0.24703  -0.19564
 Alpha virt. eigenvalues --   -0.12900  -0.07496  -0.06326  -0.04407  -0.03712
 Alpha virt. eigenvalues --   -0.00846  -0.00475  -0.00309  -0.00011   0.00394
 Alpha virt. eigenvalues --    0.00820   0.01214   0.01471   0.01673   0.01876

 Mulliken charges:
               1
     1  C    0.267460
     2  C   -0.070610
     3  C    0.179701
     4  C    0.202515
     5  C    0.226951
     6  C   -0.230157
     7  C    0.227355
     8  C    0.398827
     9  C    0.406005
    10  C   -0.504979
    11  C    0.207242
    12  C    0.140315
    13  C   -0.477670
    14  C   -0.586032
    15  H    0.158203
    16  H    0.160646
    17  H    0.176782
    18  N   -0.125611
    19  N   -0.141468
    20  O   -0.282296
    21  O   -0.268665
    22  O   -0.277866
    23  O   -0.222324
    24  C   -0.190594
    25  H    0.176338
    26  H    0.168715
    27  H    0.182451
    28  C   -0.198161
    29  H    0.173807
    30  H    0.173614
    31  H    0.181963
    32  C    0.048801
    33  C   -0.492753
    34  S   -0.610228
    35  C   -0.191200
    36  H    0.139348
    37  C    0.716146
    38  O   -0.128931
    39  C    0.827055
    40  C   -0.241679
    41  C   -0.028736
    42  S   -0.256962
    43  H    0.165207
    44  H    0.144916
    45  H    0.163644
    46  C   -0.604799
    47  O   -0.128527
    48  C   -0.270373
    49  H    0.132863
    50  C   -0.240498
    51  H    0.162032
    52  H    0.145350
    53  H    0.169803
    54  H    0.147064
 Sum of Mulliken charges =  -0.00000

 Dipole moment (field-independent basis, Debye):
    X=             -4.9934    Y=             -0.6333    Z=              0.2103  Tot=              5.0378
 Quadrupole moment (field-independent basis, Debye-Ang):
   XX=           -216.6329   YY=           -212.4003   ZZ=           -218.3828
   XY=              4.1909   XZ=              3.3461   YZ=             13.3960

 Normal termination of Gaussian 16 at Sun Nov 29 11:42:00 2020.
