 Gaussian 16, Revision C.01,
 Gaussian 16:  ES64L-G16RevC.01  3-Jul-2019

 -------------------------------------
 # opt=modredundant b3lyp/6-311+g(d,p)
 -------------------------------------

 -----------
 NDI_170.pdb
 -----------
 Symbolic Z-matrix:
 Charge =  0 Multiplicity = 1

 SCF Done:  E(RB3LYP) =  -2359.29398177     A.U. after   18 cycles
 SCF Done:  E(RB3LYP) =  -2359.32190510     A.U. after   17 cycles
 SCF Done:  E(RB3LYP) =  -2359.33098432     A.U. after   16 cycles
 SCF Done:  E(RB3LYP) =  -2359.33342711     A.U. after   14 cycles
 SCF Done:  E(RB3LYP) =  -2359.33408005     A.U. after   13 cycles
 SCF Done:  E(RB3LYP) =  -2359.33419286     A.U. after   16 cycles
 SCF Done:  E(RB3LYP) =  -2359.33432780     A.U. after   13 cycles
 SCF Done:  E(RB3LYP) =  -2359.33442023     A.U. after   12 cycles
 SCF Done:  E(RB3LYP) =  -2359.33451004     A.U. after   16 cycles
 SCF Done:  E(RB3LYP) =  -2359.33456589     A.U. after   12 cycles
 SCF Done:  E(RB3LYP) =  -2359.33458908     A.U. after   12 cycles
 SCF Done:  E(RB3LYP) =  -2359.33459417     A.U. after   13 cycles
 SCF Done:  E(RB3LYP) =  -2359.33459974     A.U. after   12 cycles
 SCF Done:  E(RB3LYP) =  -2359.33460106     A.U. after   11 cycles
 SCF Done:  E(RB3LYP) =  -2359.33460130     A.U. after   11 cycles
 SCF Done:  E(RB3LYP) =  -2359.33460136     A.U. after   10 cycles
 SCF Done:  E(RB3LYP) =  -2359.33460137     A.U. after    9 cycles
 Optimization completed.
    -- Stationary point found.

                         Standard orientation:
 ---------------------------------------------------------------------
 Center     Atomic      Atomic             Coordinates (Angstroms)
 Number     Number       Type             X           Y           Z
 ---------------------------------------------------------------------
      1          6           0       -3.459965   -2.699820   -0.161764
      2          6           0       -2.751724   -1.404009    0.010899
      3          6           0       -3.455412   -0.182672   -0.090035
      4          6           0       -4.837929   -0.172398   -0.354890
      5          6           0       -5.578799   -1.449056   -0.534436
      6          6           0       -1.404447   -1.406481    0.239702
      7          6           0       -2.730972    1.026334    0.089629
      8          6           0       -1.322856    1.011842    0.344863
      9          6           0       -0.614950   -0.221859    0.401770
     10          6           0       -0.687458    2.310464    0.655629
     11          6           0       -2.806800    3.542749    0.215276
     12          6           0       -3.465639    2.236501    0.003662
     13          6           0       -4.828347    2.229408   -0.265053
     14          6           0       -5.521393    1.030874   -0.447272
     15          1           0       -6.583835    1.020669   -0.653084
     16          1           0       -5.339121    3.182197   -0.323748
     17          1           0       -0.928906   -2.374175    0.244913
     18          7           0       -1.456824    3.482335    0.559384
     19          7           0       -4.831996   -2.636066   -0.422254
     20          8           0       -2.895698   -3.776986   -0.085103
     21          8           0       -6.772572   -1.477961   -0.766384
     22          8           0       -3.398050    4.604723    0.116354
     23          8           0        0.477146    2.423164    1.004325
     24          6           0       -0.755217    4.738911    0.857388
     25          1           0       -0.366415    4.712264    1.875312
     26          1           0        0.083932    4.865636    0.173057
     27          1           0       -1.467376    5.549563    0.740128
     28          6           0       -5.524578   -3.921264   -0.592231
     29          1           0       -5.068770   -4.478711   -1.410624
     30          1           0       -5.434574   -4.512131    0.319769
     31          1           0       -6.567635   -3.712265   -0.807350
     32          6           0        0.824153   -0.482452    0.505185
     33          6           0        1.358319   -1.750481    0.752916
     34         16           0        2.117971    0.603726    0.030771
     35          6           0        2.738544   -1.844966    0.550330
     36          1           0        0.770449   -2.584945    1.099994
     37          6           0        3.323987   -0.657390    0.102901
     38          8           0        3.520899   -2.937719    0.758835
     39          6           0        4.707581   -0.432370   -0.202000
     40          6           0        2.880391   -4.164832    1.095886
     41          6           0        5.302479    0.748640   -0.640849
     42         16           0        5.936305   -1.688206   -0.071750
     43          1           0        3.674419   -4.905411    1.171746
     44          1           0        2.362716   -4.088466    2.057672
     45          1           0        2.171898   -4.465779    0.317458
     46          6           0        6.702490    0.647226   -0.863986
     47          8           0        4.537385    1.852898   -0.815647
     48          6           0        7.172355   -0.609390   -0.598042
     49          1           0        7.329533    1.458359   -1.203730
     50          6           0        5.174035    3.058927   -1.229200
     51          1           0        8.188784   -0.962517   -0.682866
     52          1           0        5.640821    2.940279   -2.212194
     53          1           0        4.384365    3.805218   -1.289505
     54          1           0        5.923063    3.378448   -0.497914
 ---------------------------------------------------------------------

 The electronic state is 1-A.
 Alpha  occ. eigenvalues --  -88.88727 -88.88288 -19.17471 -19.17166 -19.12228
 Alpha  occ. eigenvalues --  -19.12200 -19.11439 -19.11317 -14.38398 -14.37782
 Alpha  occ. eigenvalues --  -10.30784 -10.30684 -10.30125 -10.29886 -10.25282
 Alpha  occ. eigenvalues --  -10.24729 -10.24098 -10.23946 -10.23901 -10.22537
 Alpha  occ. eigenvalues --  -10.22510 -10.22497 -10.22100 -10.22057 -10.22005
 Alpha  occ. eigenvalues --  -10.21819 -10.21809 -10.21495 -10.21450 -10.21163
 Alpha  occ. eigenvalues --  -10.20883 -10.20578 -10.20512 -10.20426 -10.19361
 Alpha  occ. eigenvalues --  -10.19305  -7.97279  -7.96771  -5.93587  -5.93198
 Alpha  occ. eigenvalues --   -5.93092  -5.92848  -5.92678  -5.92325  -1.09099
 Alpha  occ. eigenvalues --   -1.08729  -1.08464  -1.07927  -1.06649  -1.05958
 Alpha  occ. eigenvalues --   -0.96024  -0.95380  -0.92032  -0.90507  -0.88951
 Alpha  occ. eigenvalues --   -0.86382  -0.83849  -0.80483  -0.78060  -0.77735
 Alpha  occ. eigenvalues --   -0.76681  -0.75635  -0.74911  -0.73464  -0.72285
 Alpha  occ. eigenvalues --   -0.71419  -0.70758  -0.68888  -0.66856  -0.65657
 Alpha  occ. eigenvalues --   -0.65309  -0.64662  -0.61007  -0.60123  -0.58545
 Alpha  occ. eigenvalues --   -0.57357  -0.56774  -0.56511  -0.55356  -0.54699
 Alpha  occ. eigenvalues --   -0.53619  -0.51374  -0.50142  -0.49895  -0.49366
 Alpha  occ. eigenvalues --   -0.49241  -0.49054  -0.48707  -0.48695  -0.48306
 Alpha  occ. eigenvalues --   -0.48163  -0.47098  -0.46551  -0.46099  -0.45945
 Alpha  occ. eigenvalues --   -0.45597  -0.44891  -0.44307  -0.44061  -0.43489
 Alpha  occ. eigenvalues --   -0.43090  -0.42407  -0.42282  -0.41928  -0.41713
 Alpha  occ. eigenvalues --   -0.41597  -0.41187  -0.40975  -0.40413  -0.39766
 Alpha  occ. eigenvalues --   -0.39426  -0.39170  -0.38877  -0.37615  -0.37143
 Alpha  occ. eigenvalues --   -0.36533  -0.36219  -0.34546  -0.34309  -0.33577
 Alpha  occ. eigenvalues --   -0.33297  -0.31723  -0.30695  -0.30367  -0.29605
 Alpha  occ. eigenvalues --   -0.29198  -0.28599  -0.28476  -0.27753  -0.27249
 Alpha  occ. eigenvalues --   -0.25905  -0.25013  -0.24475  -0.19662
 Alpha virt. eigenvalues --   -0.12724  -0.07751  -0.06203  -0.04260  -0.03704
 Alpha virt. eigenvalues --   -0.00855  -0.00493  -0.00359  -0.00058   0.00398
 Alpha virt. eigenvalues --    0.00959   0.01090   0.01485   0.01935   0.02001

 Mulliken charges:
               1
     1  C    0.308150
     2  C   -0.019326
     3  C    0.195904
     4  C    0.168322
     5  C    0.263206
     6  C    0.084225
     7  C    0.116849
     8  C    0.199566
     9  C    0.412223
    10  C   -0.266186
    11  C    0.252885
    12  C    0.082053
    13  C   -0.474147
    14  C   -0.609819
    15  H    0.157368
    16  H    0.160596
    17  H    0.156374
    18  N   -0.137241
    19  N   -0.144744
    20  O   -0.287461
    21  O   -0.266269
    22  O   -0.281355
    23  O   -0.221337
    24  C   -0.182462
    25  H    0.176787
    26  H    0.173173
    27  H    0.182795
    28  C   -0.196605
    29  H    0.172966
    30  H    0.173245
    31  H    0.182454
    32  C   -0.149072
    33  C   -0.452565
    34  S   -0.619097
    35  C   -0.386990
    36  H    0.129679
    37  C    0.696038
    38  O   -0.133822
    39  C    0.854153
    40  C   -0.226992
    41  C   -0.042782
    42  S   -0.248300
    43  H    0.167701
    44  H    0.147243
    45  H    0.152611
    46  C   -0.531766
    47  O   -0.115195
    48  C   -0.288334
    49  H    0.132889
    50  C   -0.243185
    51  H    0.162734
    52  H    0.145052
    53  H    0.169652
    54  H    0.148159
 Sum of Mulliken charges =  -0.00000

 Dipole moment (field-independent basis, Debye):
    X=              5.4106    Y=             -0.8440    Z=             -0.4794  Tot=              5.4970
 Quadrupole moment (field-independent basis, Debye-Ang):
   XX=           -211.0085   YY=           -214.1974   ZZ=           -221.5050
   XY=             12.4311   XZ=             -9.3144   YZ=             -7.4954

 Normal termination of Gaussian 16 at Sun Nov 29 16:13:41 2020.
