 Gaussian 16, Revision C.01,
 Gaussian 16:  ES64L-G16RevC.01  3-Jul-2019

 -------------------------------------
 # opt=modredundant b3lyp/6-311+g(d,p)
 -------------------------------------

 ------------
 NDI_-135.pdb
 ------------
 Symbolic Z-matrix:
 Charge =  0 Multiplicity = 1

 SCF Done:  E(RB3LYP) =  -2359.32478117     A.U. after   17 cycles
 SCF Done:  E(RB3LYP) =  -2359.32257852     A.U. after   18 cycles
 SCF Done:  E(RB3LYP) =  -2359.33151267     A.U. after   15 cycles
 SCF Done:  E(RB3LYP) =  -2359.33407268     A.U. after   14 cycles
 SCF Done:  E(RB3LYP) =  -2359.33453546     A.U. after   13 cycles
 SCF Done:  E(RB3LYP) =  -2359.33502676     A.U. after   16 cycles
 SCF Done:  E(RB3LYP) =  -2359.33524640     A.U. after   16 cycles
 SCF Done:  E(RB3LYP) =  -2359.33560509     A.U. after   16 cycles
 SCF Done:  E(RB3LYP) =  -2359.33581440     A.U. after   14 cycles
 SCF Done:  E(RB3LYP) =  -2359.33587745     A.U. after   14 cycles
 SCF Done:  E(RB3LYP) =  -2359.33588879     A.U. after   12 cycles
 SCF Done:  E(RB3LYP) =  -2359.33588466     A.U. after   12 cycles
 SCF Done:  E(RB3LYP) =  -2359.33589154     A.U. after   13 cycles
 SCF Done:  E(RB3LYP) =  -2359.33589176     A.U. after   10 cycles
 SCF Done:  E(RB3LYP) =  -2359.33589181     A.U. after    9 cycles
 SCF Done:  E(RB3LYP) =  -2359.33589192     A.U. after   11 cycles
 Optimization completed.
    -- Stationary point found.

                         Standard orientation:
 ---------------------------------------------------------------------
 Center     Atomic      Atomic             Coordinates (Angstroms)
 Number     Number       Type             X           Y           Z
 ---------------------------------------------------------------------
      1          6           0       -3.398757   -2.743544    0.431429
      2          6           0       -2.701821   -1.461669    0.147016
      3          6           0       -3.414697   -0.240952    0.165650
      4          6           0       -4.796740   -0.220299    0.448929
      5          6           0       -5.524008   -1.484541    0.742204
      6          6           0       -1.357165   -1.467612   -0.132206
      7          6           0       -2.722854    0.963599   -0.139478
      8          6           0       -1.325167    0.945475   -0.417791
      9          6           0       -0.623263   -0.274673   -0.380651
     10          6           0       -0.696978    2.199367   -0.919987
     11          6           0       -2.824523    3.449111   -0.543159
     12          6           0       -3.469115    2.167640   -0.167716
     13          6           0       -4.823715    2.168203    0.126761
     14          6           0       -5.491513    0.977906    0.438858
     15          1           0       -6.551105    0.972484    0.660097
     16          1           0       -5.353906    3.111754    0.097876
     17          1           0       -0.830705   -2.412892   -0.107285
     18          7           0       -1.487674    3.364404   -0.936282
     19          7           0       -4.771291   -2.670434    0.696598
     20          8           0       -2.823246   -3.815954    0.452812
     21          8           0       -6.711855   -1.501243    1.003996
     22          8           0       -3.425731    4.509052   -0.534868
     23          8           0        0.453274    2.270991   -1.307275
     24          6           0       -0.816891    4.586626   -1.402604
     25          1           0        0.038492    4.806313   -0.763234
     26          1           0       -0.455427    4.442003   -2.420617
     27          1           0       -1.538478    5.396402   -1.363364
     28          6           0       -5.448340   -3.944267    0.979662
     29          1           0       -5.318174   -4.622920    0.136750
     30          1           0       -5.010750   -4.406757    1.864915
     31          1           0       -6.500627   -3.734230    1.142321
     32          6           0        0.827212   -0.456833   -0.510869
     33          6           0        1.450173   -1.409904   -1.289389
     34         16           0        1.976966    0.374252    0.497954
     35          6           0        2.850218   -1.443076   -1.106540
     36          1           0        0.912497   -2.038873   -1.984522
     37          6           0        3.319665   -0.548811   -0.147542
     38          8           0        3.731950   -2.258411   -1.746395
     39          6           0        4.674632   -0.369420    0.299321
     40          6           0        3.238856   -3.080094   -2.799408
     41          6           0        5.142562    0.518569    1.261011
     42         16           0        6.025876   -1.296197   -0.342733
     43          1           0        4.104451   -3.605200   -3.199341
     44          1           0        2.513519   -3.810273   -2.425343
     45          1           0        2.781254   -2.475001   -3.588801
     46          6           0        6.547493    0.460850    1.474178
     47          8           0        4.263726    1.341431    1.892010
     48          6           0        7.147488   -0.474171    0.677386
     49          1           0        7.086510    1.076551    2.179257
     50          6           0        4.765493    2.217453    2.896030
     51          1           0        8.195730   -0.726711    0.632000
     52          1           0        5.490824    2.922875    2.477857
     53          1           0        3.903451    2.765859    3.271509
     54          1           0        5.225325    1.655439    3.715365
 ---------------------------------------------------------------------

 The electronic state is 1-A.
 Alpha  occ. eigenvalues --  -88.88151 -88.88026 -19.16937 -19.16794 -19.12461
 Alpha  occ. eigenvalues --  -19.12435 -19.11822 -19.11679 -14.38629 -14.38069
 Alpha  occ. eigenvalues --  -10.31068 -10.30912 -10.30480 -10.30418 -10.24514
 Alpha  occ. eigenvalues --  -10.24401 -10.23773 -10.23664 -10.23626 -10.22906
 Alpha  occ. eigenvalues --  -10.22624 -10.22604 -10.22316 -10.22301 -10.22095
 Alpha  occ. eigenvalues --  -10.21948 -10.21912 -10.21510 -10.21500 -10.21177
 Alpha  occ. eigenvalues --  -10.21124 -10.21052 -10.20738 -10.20606 -10.18983
 Alpha  occ. eigenvalues --  -10.18746  -7.96704  -7.96576  -5.93014  -5.92901
 Alpha  occ. eigenvalues --   -5.92624  -5.92506  -5.92272  -5.92114  -1.08709
 Alpha  occ. eigenvalues --   -1.08494  -1.08334  -1.08210  -1.06901  -1.06346
 Alpha  occ. eigenvalues --   -0.96268  -0.95675  -0.92489  -0.90195  -0.88652
 Alpha  occ. eigenvalues --   -0.86675  -0.84282  -0.80454  -0.78453  -0.77515
 Alpha  occ. eigenvalues --   -0.76359  -0.75218  -0.75118  -0.73133  -0.72491
 Alpha  occ. eigenvalues --   -0.71530  -0.70394  -0.68813  -0.67100  -0.65892
 Alpha  occ. eigenvalues --   -0.65504  -0.64822  -0.60891  -0.59837  -0.58592
 Alpha  occ. eigenvalues --   -0.57427  -0.56700  -0.56198  -0.55082  -0.54721
 Alpha  occ. eigenvalues --   -0.53753  -0.51679  -0.50229  -0.49910  -0.49684
 Alpha  occ. eigenvalues --   -0.49424  -0.48681  -0.48651  -0.48503  -0.48371
 Alpha  occ. eigenvalues --   -0.48040  -0.47103  -0.46591  -0.46330  -0.45831
 Alpha  occ. eigenvalues --   -0.45450  -0.44942  -0.44664  -0.44325  -0.43874
 Alpha  occ. eigenvalues --   -0.42780  -0.42432  -0.42268  -0.41956  -0.41838
 Alpha  occ. eigenvalues --   -0.41493  -0.41292  -0.41171  -0.40554  -0.39886
 Alpha  occ. eigenvalues --   -0.39456  -0.38983  -0.38764  -0.37727  -0.37316
 Alpha  occ. eigenvalues --   -0.36307  -0.35816  -0.34167  -0.33815  -0.33537
 Alpha  occ. eigenvalues --   -0.33471  -0.32127  -0.30970  -0.30087  -0.29814
 Alpha  occ. eigenvalues --   -0.29292  -0.28860  -0.28659  -0.28021  -0.27476
 Alpha  occ. eigenvalues --   -0.26149  -0.24735  -0.24182  -0.19202
 Alpha virt. eigenvalues --   -0.13102  -0.07134  -0.06330  -0.04715  -0.03908
 Alpha virt. eigenvalues --   -0.00864  -0.00417  -0.00326  -0.00007   0.00483
 Alpha virt. eigenvalues --    0.00693   0.01068   0.01330   0.01491   0.01903

 Mulliken charges:
               1
     1  C    0.305104
     2  C   -0.031846
     3  C    0.196860
     4  C    0.284492
     5  C    0.301784
     6  C   -0.290929
     7  C    0.148797
     8  C    0.028285
     9  C    0.203666
    10  C   -0.248748
    11  C    0.223335
    12  C    0.181455
    13  C   -0.440032
    14  C   -0.659128
    15  H    0.160092
    16  H    0.161518
    17  H    0.168532
    18  N   -0.116002
    19  N   -0.140132
    20  O   -0.277518
    21  O   -0.270612
    22  O   -0.278961
    23  O   -0.206163
    24  C   -0.177359
    25  H    0.176884
    26  H    0.177088
    27  H    0.182507
    28  C   -0.197541
    29  H    0.173445
    30  H    0.175381
    31  H    0.182507
    32  C    0.085799
    33  C   -0.419454
    34  S   -0.521077
    35  C   -0.249645
    36  H    0.131790
    37  C    0.463846
    38  O   -0.118815
    39  C    0.988994
    40  C   -0.245919
    41  C   -0.008870
    42  S   -0.236505
    43  H    0.166664
    44  H    0.148178
    45  H    0.150568
    46  C   -0.525849
    47  O   -0.138785
    48  C   -0.274683
    49  H    0.130966
    50  C   -0.239320
    51  H    0.159895
    52  H    0.144832
    53  H    0.165487
    54  H    0.145144
 Sum of Mulliken charges =  -0.00000

 Dipole moment (field-independent basis, Debye):
    X=              3.5628    Y=             -0.4462    Z=              0.1518  Tot=              3.5939
 Quadrupole moment (field-independent basis, Debye-Ang):
   XX=           -215.9526   YY=           -224.4278   ZZ=           -208.7060
   XY=              8.7219   XZ=             10.7891   YZ=             15.0575

 Normal termination of Gaussian 16 at Sun Nov 29 15:38:07 2020.
