 Gaussian 16, Revision C.01,
 Gaussian 16:  ES64L-G16RevC.01  3-Jul-2019

 -------------------------------------
 # opt=modredundant b3lyp/6-311+g(d,p)
 -------------------------------------

 -----------
 NDI_-30.pdb
 -----------
 Symbolic Z-matrix:
 Charge =  0 Multiplicity = 1

 SCF Done:  E(RB3LYP) =  -2359.33706223     A.U. after   17 cycles
 SCF Done:  E(RB3LYP) =  -2359.33526871     A.U. after   16 cycles
 SCF Done:  E(RB3LYP) =  -2359.33783837     A.U. after   13 cycles
 SCF Done:  E(RB3LYP) =  -2359.33794354     A.U. after   14 cycles
 SCF Done:  E(RB3LYP) =  -2359.33801256     A.U. after   13 cycles
 SCF Done:  E(RB3LYP) =  -2359.33804084     A.U. after   13 cycles
 SCF Done:  E(RB3LYP) =  -2359.33804918     A.U. after   12 cycles
 SCF Done:  E(RB3LYP) =  -2359.33805064     A.U. after   12 cycles
 SCF Done:  E(RB3LYP) =  -2359.33805099     A.U. after   10 cycles
 SCF Done:  E(RB3LYP) =  -2359.33805113     A.U. after   10 cycles
 Optimization completed.
    -- Stationary point found.

                         Standard orientation:
 ---------------------------------------------------------------------
 Center     Atomic      Atomic             Coordinates (Angstroms)
 Number     Number       Type             X           Y           Z
 ---------------------------------------------------------------------
      1          6           0        2.567494   -3.003944    0.331631
      2          6           0        2.258353   -1.558011    0.173775
      3          6           0        3.300267   -0.606099    0.087219
      4          6           0        4.647469   -1.014326    0.151525
      5          6           0        4.993170   -2.451268    0.320460
      6          6           0        0.952238   -1.150921    0.139351
      7          6           0        2.958576    0.764156   -0.086619
      8          6           0        1.591370    1.180320   -0.136365
      9          6           0        0.559182    0.217483    0.021338
     10          6           0        1.324920    2.598030   -0.498542
     11          6           0        3.765643    3.123698   -0.445441
     12          6           0        4.027465    1.687763   -0.209543
     13          6           0        5.348354    1.268296   -0.132720
     14          6           0        5.666210   -0.079826    0.050145
     15          1           0        6.694524   -0.412810    0.104700
     16          1           0        6.125890    2.015744   -0.226883
     17          1           0        0.194516   -1.914586    0.256780
     18          7           0        2.424754    3.470194   -0.613203
     19          7           0        3.920072   -3.355619    0.394062
     20          8           0        1.704146   -3.858675    0.409474
     21          8           0        6.145586   -2.835021    0.389842
     22          8           0        4.656806    3.953190   -0.513546
     23          8           0        0.215448    3.056394   -0.713443
     24          6           0        2.104529    4.865428   -0.946459
     25          1           0        1.581132    4.905901   -1.901645
     26          1           0        1.454691    5.290775   -0.181215
     27          1           0        3.038908    5.415183   -0.997764
     28          6           0        4.214942   -4.786402    0.556053
     29          1           0        3.744470   -5.157557    1.466639
     30          1           0        3.813684   -5.343522   -0.291009
     31          1           0        5.292874   -4.900998    0.609391
     32          6           0       -0.871946    0.462459    0.164158
     33          6           0       -1.559167    1.527617    0.711916
     34         16           0       -2.004514   -0.785142   -0.349524
     35          6           0       -2.952447    1.347682    0.729356
     36          1           0       -1.069687    2.408222    1.088913
     37          6           0       -3.387727    0.141710    0.173862
     38          8           0       -3.872964    2.217602    1.220282
     39          6           0       -4.738810   -0.311817    0.010045
     40          6           0       -3.418042    3.500351    1.647129
     41          6           0       -5.169254   -1.522228   -0.526283
     42         16           0       -6.137727    0.646569    0.482596
     43          1           0       -4.311966    4.055387    1.925636
     44          1           0       -2.758964    3.413202    2.516911
     45          1           0       -2.896372    4.019942    0.837904
     46          6           0       -6.581951   -1.675470   -0.557051
     47          8           0       -4.249806   -2.419660   -0.961912
     48          6           0       -7.225156   -0.582646   -0.044695
     49          1           0       -7.096375   -2.546097   -0.936476
     50          6           0       -4.712596   -3.666442   -1.474855
     51          1           0       -8.289268   -0.432735    0.055377
     52          1           0       -5.335359   -3.519029   -2.362832
     53          1           0       -3.819667   -4.226128   -1.746438
     54          1           0       -5.273203   -4.219926   -0.715062
 ---------------------------------------------------------------------

 The electronic state is 1-A.
 Alpha  occ. eigenvalues --  -88.88691 -88.88598 -19.17490 -19.17083 -19.12204
 Alpha  occ. eigenvalues --  -19.12176 -19.11466 -19.11434 -14.38383 -14.37872
 Alpha  occ. eigenvalues --  -10.30798 -10.30647 -10.30378 -10.30031 -10.25186
 Alpha  occ. eigenvalues --  -10.24825 -10.24100 -10.23767 -10.23668 -10.22747
 Alpha  occ. eigenvalues --  -10.22648 -10.22308 -10.22201 -10.22189 -10.22062
 Alpha  occ. eigenvalues --  -10.21954 -10.21930 -10.21623 -10.21347 -10.21209
 Alpha  occ. eigenvalues --  -10.20863 -10.20720 -10.20640 -10.20547 -10.19262
 Alpha  occ. eigenvalues --  -10.18978  -7.97241  -7.97165  -5.93551  -5.93482
 Alpha  occ. eigenvalues --   -5.93162  -5.93092  -5.92810  -5.92712  -1.09056
 Alpha  occ. eigenvalues --   -1.08651  -1.08461  -1.07978  -1.06644  -1.06046
 Alpha  occ. eigenvalues --   -0.96025  -0.95417  -0.92147  -0.90591  -0.89005
 Alpha  occ. eigenvalues --   -0.86461  -0.83947  -0.80449  -0.78225  -0.77824
 Alpha  occ. eigenvalues --   -0.76604  -0.75575  -0.74950  -0.73415  -0.72278
 Alpha  occ. eigenvalues --   -0.71763  -0.70529  -0.68866  -0.66955  -0.65625
 Alpha  occ. eigenvalues --   -0.65479  -0.64478  -0.61234  -0.60037  -0.58523
 Alpha  occ. eigenvalues --   -0.57268  -0.56770  -0.56620  -0.55208  -0.55005
 Alpha  occ. eigenvalues --   -0.53362  -0.51495  -0.50300  -0.49837  -0.49552
 Alpha  occ. eigenvalues --   -0.49258  -0.49043  -0.48656  -0.48534  -0.48373
 Alpha  occ. eigenvalues --   -0.48185  -0.46931  -0.46466  -0.46206  -0.45869
 Alpha  occ. eigenvalues --   -0.45722  -0.44780  -0.44331  -0.44016  -0.43439
 Alpha  occ. eigenvalues --   -0.42917  -0.42608  -0.42391  -0.41939  -0.41893
 Alpha  occ. eigenvalues --   -0.41668  -0.41043  -0.40988  -0.40348  -0.39911
 Alpha  occ. eigenvalues --   -0.39389  -0.39131  -0.38998  -0.37829  -0.37398
 Alpha  occ. eigenvalues --   -0.36621  -0.36007  -0.34554  -0.34255  -0.33764
 Alpha  occ. eigenvalues --   -0.33589  -0.31877  -0.30839  -0.30384  -0.29636
 Alpha  occ. eigenvalues --   -0.29176  -0.28673  -0.28532  -0.27864  -0.27212
 Alpha  occ. eigenvalues --   -0.25979  -0.24905  -0.24744  -0.19617
 Alpha virt. eigenvalues --   -0.12867  -0.07586  -0.06305  -0.04357  -0.03679
 Alpha virt. eigenvalues --   -0.00842  -0.00479  -0.00308  -0.00030   0.00384
 Alpha virt. eigenvalues --    0.00834   0.01241   0.01461   0.01721   0.01907

 Mulliken charges:
               1
     1  C    0.258568
     2  C   -0.055137
     3  C    0.196524
     4  C    0.204047
     5  C    0.227489
     6  C   -0.120793
     7  C    0.237426
     8  C    0.429331
     9  C    0.353825
    10  C   -0.597131
    11  C    0.205541
    12  C    0.130652
    13  C   -0.477469
    14  C   -0.586602
    15  H    0.158011
    16  H    0.160624
    17  H    0.173868
    18  N   -0.120913
    19  N   -0.140918
    20  O   -0.283579
    21  O   -0.268557
    22  O   -0.278436
    23  O   -0.230501
    24  C   -0.184359
    25  H    0.176530
    26  H    0.168481
    27  H    0.182493
    28  C   -0.198341
    29  H    0.173703
    30  H    0.173454
    31  H    0.181848
    32  C    0.011670
    33  C   -0.462445
    34  S   -0.636900
    35  C   -0.199104
    36  H    0.142174
    37  C    0.717716
    38  O   -0.128404
    39  C    0.840985
    40  C   -0.242110
    41  C   -0.017292
    42  S   -0.253576
    43  H    0.165347
    44  H    0.145041
    45  H    0.164614
    46  C   -0.613374
    47  O   -0.128277
    48  C   -0.273903
    49  H    0.133166
    50  C   -0.240487
    51  H    0.162426
    52  H    0.145336
    53  H    0.170449
    54  H    0.147270
 Sum of Mulliken charges =  -0.00000

 Dipole moment (field-independent basis, Debye):
    X=             -5.2110    Y=             -0.6629    Z=              0.2110  Tot=              5.2572
 Quadrupole moment (field-independent basis, Debye-Ang):
   XX=           -216.2278   YY=           -211.5774   ZZ=           -219.3197
   XY=              4.3208   XZ=              2.6662   YZ=             12.4158

 Normal termination of Gaussian 16 at Sun Nov 29 12:20:53 2020.
