 Gaussian 16, Revision C.01,
 Gaussian 16:  ES64L-G16RevC.01  3-Jul-2019

 -------------------------------------
 # opt=modredundant b3lyp/6-311+g(d,p)
 -------------------------------------

 -----------
 NDI_-85.pdb
 -----------
 Symbolic Z-matrix:
 Charge =  0 Multiplicity = 1

 SCF Done:  E(RB3LYP) =  -2359.33030895     A.U. after   18 cycles
 SCF Done:  E(RB3LYP) =  -2359.33394468     A.U. after   15 cycles
 SCF Done:  E(RB3LYP) =  -2359.33437078     A.U. after   13 cycles
 SCF Done:  E(RB3LYP) =  -2359.33438547     A.U. after   13 cycles
 SCF Done:  E(RB3LYP) =  -2359.33443896     A.U. after   12 cycles
 SCF Done:  E(RB3LYP) =  -2359.33444177     A.U. after   11 cycles
 SCF Done:  E(RB3LYP) =  -2359.33444396     A.U. after   11 cycles
 SCF Done:  E(RB3LYP) =  -2359.33444417     A.U. after    9 cycles
 SCF Done:  E(RB3LYP) =  -2359.33444433     A.U. after    9 cycles
 Optimization completed.
    -- Stationary point found.

                         Standard orientation:
 ---------------------------------------------------------------------
 Center     Atomic      Atomic             Coordinates (Angstroms)
 Number     Number       Type             X           Y           Z
 ---------------------------------------------------------------------
      1          6           0        3.101022   -2.866438    0.448101
      2          6           0        2.540613   -1.497256    0.294993
      3          6           0        3.391446   -0.407538    0.008910
      4          6           0        4.784223   -0.599140   -0.136096
      5          6           0        5.378281   -1.955286    0.019395
      6          6           0        1.187544   -1.291251    0.446185
      7          6           0        2.829513    0.890099   -0.136177
      8          6           0        1.428107    1.084545    0.017207
      9          6           0        0.605461   -0.003302    0.331751
     10          6           0        0.872383    2.458260   -0.180592
     11          6           0        3.166889    3.344369   -0.609430
     12          6           0        3.698032    1.968270   -0.435480
     13          6           0        5.059019    1.757900   -0.574807
     14          6           0        5.606050    0.475088   -0.424099
     15          1           0        6.670144    0.306874   -0.531232
     16          1           0        5.690471    2.607197   -0.803183
     17          1           0        0.551928   -2.137743    0.673438
     18          7           0        1.783613    3.488980   -0.478073
     19          7           0        4.488262   -3.002387    0.306082
     20          8           0        2.407933   -3.837901    0.682032
     21          8           0        6.572955   -2.152659   -0.095315
     22          8           0        3.890155    4.291989   -0.856714
     23          8           0       -0.309867    2.722660   -0.107504
     24          6           0        1.198743    4.825347   -0.665452
     25          1           0        0.482556    4.801579   -1.486796
     26          1           0        0.672896    5.128040    0.240146
     27          1           0        2.008089    5.514460   -0.884264
     28          6           0        5.027734   -4.361166    0.463913
     29          1           0        4.764736   -4.747635    1.448532
     30          1           0        4.596516   -5.018936   -0.291173
     31          1           0        6.105716   -4.307821    0.350032
     32          6           0       -0.857753    0.079534    0.545165
     33          6           0       -1.520968    0.398509    1.698020
     34         16           0       -1.952121   -0.453016   -0.697390
     35          6           0       -2.929292    0.250154    1.576603
     36          1           0       -1.017515    0.740593    2.590602
     37          6           0       -3.352616   -0.201890    0.336984
     38          8           0       -3.850216    0.500543    2.549174
     39          6           0       -4.702724   -0.431522   -0.114139
     40          6           0       -3.397219    1.088044    3.763060
     41          6           0       -5.118389   -0.912010   -1.347195
     42         16           0       -6.111084   -0.107859    0.888117
     43          1           0       -4.287860    1.248763    4.368297
     44          1           0       -2.714275    0.418557    4.296980
     45          1           0       -2.903728    2.047644    3.577194
     46          6           0       -6.530724   -1.018233   -1.487993
     47          8           0       -4.186434   -1.227762   -2.290755
     48          6           0       -7.189452   -0.618087   -0.359452
     49          1           0       -7.033100   -1.372945   -2.376152
     50          6           0       -4.642957   -1.752423   -3.531496
     51          1           0       -8.254550   -0.598530   -0.187571
     52          1           0       -5.276722   -1.030683   -4.057578
     53          1           0       -3.749031   -1.945147   -4.122384
     54          1           0       -5.192116   -2.688837   -3.387182
 ---------------------------------------------------------------------

 The electronic state is 1-A.
 Alpha  occ. eigenvalues --  -88.87708 -88.87393 -19.16162 -19.16125 -19.12868
 Alpha  occ. eigenvalues --  -19.12797 -19.12539 -19.12460 -14.38997 -14.38704
 Alpha  occ. eigenvalues --  -10.31494 -10.31276 -10.31186 -10.31143 -10.23910
 Alpha  occ. eigenvalues --  -10.23663 -10.23573 -10.23501 -10.23455 -10.23276
 Alpha  occ. eigenvalues --  -10.23219 -10.23183 -10.22923 -10.22861 -10.22842
 Alpha  occ. eigenvalues --  -10.21905 -10.21849 -10.21826 -10.21391 -10.21331
 Alpha  occ. eigenvalues --  -10.21091 -10.20877 -10.20720 -10.19880 -10.18249
 Alpha  occ. eigenvalues --  -10.18023  -7.96250  -7.95948  -5.92575  -5.92258
 Alpha  occ. eigenvalues --   -5.92183  -5.91870  -5.91790  -5.91517  -1.09105
 Alpha  occ. eigenvalues --   -1.08917  -1.07693  -1.07618  -1.07306  -1.07087
 Alpha  occ. eigenvalues --   -0.96672  -0.96316  -0.93074  -0.89701  -0.88209
 Alpha  occ. eigenvalues --   -0.86847  -0.84861  -0.80493  -0.79001  -0.77138
 Alpha  occ. eigenvalues --   -0.75829  -0.75589  -0.74483  -0.73003  -0.72488
 Alpha  occ. eigenvalues --   -0.71831  -0.69810  -0.68634  -0.67549  -0.66397
 Alpha  occ. eigenvalues --   -0.65896  -0.65027  -0.60843  -0.59469  -0.58577
 Alpha  occ. eigenvalues --   -0.57817  -0.56518  -0.55698  -0.55518  -0.54050
 Alpha  occ. eigenvalues --   -0.53883  -0.52107  -0.50614  -0.50238  -0.50094
 Alpha  occ. eigenvalues --   -0.49167  -0.49021  -0.48859  -0.48078  -0.47838
 Alpha  occ. eigenvalues --   -0.47685  -0.47467  -0.46988  -0.46635  -0.45574
 Alpha  occ. eigenvalues --   -0.45357  -0.45053  -0.44889  -0.44625  -0.44089
 Alpha  occ. eigenvalues --   -0.43026  -0.42855  -0.42461  -0.42031  -0.41847
 Alpha  occ. eigenvalues --   -0.41538  -0.41219  -0.40991  -0.40716  -0.40232
 Alpha  occ. eigenvalues --   -0.39988  -0.38890  -0.38250  -0.37823  -0.36888
 Alpha  occ. eigenvalues --   -0.35817  -0.35520  -0.33695  -0.33226  -0.33103
 Alpha  occ. eigenvalues --   -0.32846  -0.32741  -0.31413  -0.30539  -0.30031
 Alpha  occ. eigenvalues --   -0.29514  -0.29375  -0.28917  -0.28687  -0.27163
 Alpha  occ. eigenvalues --   -0.26753  -0.24154  -0.23833  -0.18619
 Alpha virt. eigenvalues --   -0.13548  -0.07274  -0.06161  -0.05101  -0.04391
 Alpha virt. eigenvalues --   -0.01127  -0.00048  -0.00000   0.00186   0.00488
 Alpha virt. eigenvalues --    0.00740   0.00799   0.01043   0.01152   0.01733

 Mulliken charges:
               1
     1  C    0.397326
     2  C    0.009123
     3  C    0.211559
     4  C    0.201996
     5  C    0.251967
     6  C   -0.593397
     7  C    0.198005
     8  C    0.049263
     9  C    0.568008
    10  C   -0.438756
    11  C    0.180557
    12  C    0.192956
    13  C   -0.492238
    14  C   -0.621108
    15  H    0.161979
    16  H    0.162789
    17  H    0.169929
    18  N   -0.167737
    19  N   -0.148144
    20  O   -0.267548
    21  O   -0.268291
    22  O   -0.269026
    23  O   -0.089523
    24  C   -0.215629
    25  H    0.178724
    26  H    0.175047
    27  H    0.183800
    28  C   -0.200037
    29  H    0.175489
    30  H    0.175838
    31  H    0.182405
    32  C    0.137737
    33  C   -0.467470
    34  S   -0.171540
    35  C   -0.087022
    36  H    0.111503
    37  C    0.322296
    38  O   -0.142115
    39  C    0.779119
    40  C   -0.230509
    41  C    0.030928
    42  S   -0.285650
    43  H    0.164320
    44  H    0.141289
    45  H    0.152844
    46  C   -0.545643
    47  O   -0.145834
    48  C   -0.317450
    49  H    0.128399
    50  C   -0.235602
    51  H    0.156556
    52  H    0.143370
    53  H    0.162522
    54  H    0.142625
 Sum of Mulliken charges =  -0.00000

 Dipole moment (field-independent basis, Debye):
    X=             -1.2885    Y=              0.0304    Z=              0.0510  Tot=              1.2899
 Quadrupole moment (field-independent basis, Debye-Ang):
   XX=           -221.9043   YY=           -229.8270   ZZ=           -200.0474
   XY=             -0.1132   XZ=              9.2355   YZ=             11.6383

 Normal termination of Gaussian 16 at Sun Nov 29 12:34:21 2020.
