 Gaussian 16, Revision C.01,
 Gaussian 16:  ES64L-G16RevC.01  3-Jul-2019

 -------------------------------------
 # opt=modredundant b3lyp/6-311+g(d,p)
 -------------------------------------

 ----------
 NDI_30.pdb
 ----------
 Symbolic Z-matrix:
 Charge =  0 Multiplicity = 1

 SCF Done:  E(RB3LYP) =  -2359.32999439     A.U. after   17 cycles
 SCF Done:  E(RB3LYP) =  -2359.31876195     A.U. after   18 cycles
 SCF Done:  E(RB3LYP) =  -2359.33065449     A.U. after   15 cycles
 SCF Done:  E(RB3LYP) =  -2359.33562833     A.U. after   16 cycles
 SCF Done:  E(RB3LYP) =  -2359.33668424     A.U. after   16 cycles
 SCF Done:  E(RB3LYP) =  -2359.33715069     A.U. after   16 cycles
 SCF Done:  E(RB3LYP) =  -2359.33751880     A.U. after   14 cycles
 SCF Done:  E(RB3LYP) =  -2359.33765677     A.U. after   14 cycles
 SCF Done:  E(RB3LYP) =  -2359.33771717     A.U. after   13 cycles
 SCF Done:  E(RB3LYP) =  -2359.33773584     A.U. after   12 cycles
 SCF Done:  E(RB3LYP) =  -2359.33774313     A.U. after   11 cycles
 SCF Done:  E(RB3LYP) =  -2359.33774548     A.U. after   10 cycles
 SCF Done:  E(RB3LYP) =  -2359.33774595     A.U. after   11 cycles
 SCF Done:  E(RB3LYP) =  -2359.33774611     A.U. after   10 cycles
 SCF Done:  E(RB3LYP) =  -2359.33774616     A.U. after    9 cycles
 SCF Done:  E(RB3LYP) =  -2359.33774617     A.U. after    9 cycles
 Optimization completed.
    -- Stationary point found.

                         Standard orientation:
 ---------------------------------------------------------------------
 Center     Atomic      Atomic             Coordinates (Angstroms)
 Number     Number       Type             X           Y           Z
 ---------------------------------------------------------------------
      1          6           0       -2.540358   -2.996793    0.381934
      2          6           0       -2.244568   -1.549488    0.210675
      3          6           0       -3.294744   -0.609434    0.100081
      4          6           0       -4.638171   -1.032604    0.143042
      5          6           0       -4.970967   -2.472879    0.309427
      6          6           0       -0.942436   -1.131685    0.169768
      7          6           0       -2.964154    0.762652   -0.081024
      8          6           0       -1.600138    1.193456   -0.115590
      9          6           0       -0.558781    0.239187    0.041304
     10          6           0       -1.345859    2.616115   -0.465770
     11          6           0       -3.793839    3.107502   -0.485217
     12          6           0       -4.041610    1.672267   -0.231986
     13          6           0       -5.359031    1.238814   -0.173555
     14          6           0       -5.665477   -0.110737    0.016104
     15          1           0       -6.690824   -0.455041    0.053444
     16          1           0       -6.142641    1.976629   -0.290591
     17          1           0       -0.179336   -1.888427    0.295788
     18          7           0       -2.454632    3.468746   -0.629578
     19          7           0       -3.889622   -3.365479    0.402263
     20          8           0       -1.669626   -3.837440    0.512807
     21          8           0       -6.120161   -2.869084    0.359952
     22          8           0       -4.694083    3.924054   -0.584432
     23          8           0       -0.236907    3.097667   -0.626833
     24          6           0       -2.144433    4.866686   -0.961301
     25          1           0       -1.533743    5.309611   -0.174040
     26          1           0       -1.582205    4.907544   -1.894066
     27          1           0       -3.084996    5.399775   -1.056375
     28          6           0       -4.171785   -4.798161    0.569884
     29          1           0       -3.695951   -5.361007   -0.233158
     30          1           0       -3.767094   -5.146086    1.520836
     31          1           0       -5.248562   -4.931608    0.544282
     32          6           0        0.873984    0.486891    0.172799
     33          6           0        1.572279    1.552390    0.707128
     34         16           0        1.998231   -0.766114   -0.349855
     35          6           0        2.964666    1.364372    0.715727
     36          1           0        1.090921    2.437845    1.082033
     37          6           0        3.389999    0.155236    0.159947
     38          8           0        3.895154    2.243190    1.171241
     39          6           0        4.737575   -0.304400   -0.015347
     40          6           0        3.435728    3.423262    1.826694
     41          6           0        5.157928   -1.519446   -0.549368
     42         16           0        6.144854    0.648971    0.442361
     43          1           0        4.331161    3.962851    2.129602
     44          1           0        2.845004    4.045353    1.147387
     45          1           0        2.841633    3.173247    2.711498
     46          6           0        6.569504   -1.680533   -0.588672
     47          8           0        4.230698   -2.417201   -0.967376
     48          6           0        7.222014   -0.588551   -0.086267
     49          1           0        7.076689   -2.555868   -0.967031
     50          6           0        4.684937   -3.640612   -1.540606
     51          1           0        8.287595   -0.443765    0.005539
     52          1           0        5.268150   -4.220446   -0.818345
     53          1           0        3.787458   -4.194511   -1.809065
     54          1           0        5.282973   -3.455214   -2.438373
 ---------------------------------------------------------------------

 The electronic state is 1-A.
 Alpha  occ. eigenvalues --  -88.88690 -88.88571 -19.17490 -19.17068 -19.12202
 Alpha  occ. eigenvalues --  -19.12178 -19.11435 -19.11426 -14.38384 -14.37858
 Alpha  occ. eigenvalues --  -10.30796 -10.30648 -10.30373 -10.30001 -10.25188
 Alpha  occ. eigenvalues --  -10.24796 -10.24103 -10.23813 -10.23680 -10.22741
 Alpha  occ. eigenvalues --  -10.22659 -10.22345 -10.22230 -10.22190 -10.22060
 Alpha  occ. eigenvalues --  -10.21945 -10.21924 -10.21614 -10.21347 -10.21197
 Alpha  occ. eigenvalues --  -10.20868 -10.20704 -10.20630 -10.20512 -10.19261
 Alpha  occ. eigenvalues --  -10.18942  -7.97241  -7.97140  -5.93551  -5.93457
 Alpha  occ. eigenvalues --   -5.93161  -5.93067  -5.92810  -5.92686  -1.09058
 Alpha  occ. eigenvalues --   -1.08639  -1.08463  -1.07974  -1.06644  -1.06032
 Alpha  occ. eigenvalues --   -0.96027  -0.95403  -0.92137  -0.90581  -0.88995
 Alpha  occ. eigenvalues --   -0.86453  -0.83939  -0.80445  -0.78216  -0.77825
 Alpha  occ. eigenvalues --   -0.76604  -0.75564  -0.74945  -0.73404  -0.72267
 Alpha  occ. eigenvalues --   -0.71764  -0.70525  -0.68854  -0.66951  -0.65619
 Alpha  occ. eigenvalues --   -0.65475  -0.64476  -0.61226  -0.60029  -0.58524
 Alpha  occ. eigenvalues --   -0.57263  -0.56766  -0.56618  -0.55211  -0.54980
 Alpha  occ. eigenvalues --   -0.53358  -0.51487  -0.50273  -0.49849  -0.49551
 Alpha  occ. eigenvalues --   -0.49263  -0.49042  -0.48631  -0.48552  -0.48364
 Alpha  occ. eigenvalues --   -0.48182  -0.46943  -0.46441  -0.46205  -0.45865
 Alpha  occ. eigenvalues --   -0.45727  -0.44786  -0.44305  -0.44008  -0.43388
 Alpha  occ. eigenvalues --   -0.42913  -0.42653  -0.42351  -0.41958  -0.41857
 Alpha  occ. eigenvalues --   -0.41652  -0.41060  -0.40977  -0.40332  -0.39846
 Alpha  occ. eigenvalues --   -0.39358  -0.39212  -0.38991  -0.37797  -0.37349
 Alpha  occ. eigenvalues --   -0.36619  -0.35985  -0.34557  -0.34194  -0.33737
 Alpha  occ. eigenvalues --   -0.33656  -0.31866  -0.30841  -0.30375  -0.29658
 Alpha  occ. eigenvalues --   -0.29165  -0.28645  -0.28524  -0.27852  -0.27206
 Alpha  occ. eigenvalues --   -0.25982  -0.24906  -0.24742  -0.19621
 Alpha virt. eigenvalues --   -0.12853  -0.07573  -0.06310  -0.04350  -0.03678
 Alpha virt. eigenvalues --   -0.00818  -0.00478  -0.00312  -0.00022   0.00382
 Alpha virt. eigenvalues --    0.00854   0.01220   0.01466   0.01713   0.01914

 Mulliken charges:
               1
     1  C    0.249701
     2  C   -0.021727
     3  C    0.216545
     4  C    0.204578
     5  C    0.227607
     6  C   -0.065721
     7  C    0.241962
     8  C    0.398778
     9  C    0.343863
    10  C   -0.584802
    11  C    0.209547
    12  C    0.141039
    13  C   -0.483128
    14  C   -0.598559
    15  H    0.157983
    16  H    0.160859
    17  H    0.174884
    18  N   -0.134551
    19  N   -0.140250
    20  O   -0.282700
    21  O   -0.269208
    22  O   -0.278873
    23  O   -0.229968
    24  C   -0.185866
    25  H    0.169081
    26  H    0.176349
    27  H    0.182530
    28  C   -0.198560
    29  H    0.172953
    30  H    0.174233
    31  H    0.182073
    32  C   -0.072327
    33  C   -0.483057
    34  S   -0.641914
    35  C   -0.219932
    36  H    0.148839
    37  C    0.757999
    38  O   -0.128330
    39  C    0.844683
    40  C   -0.236032
    41  C   -0.013612
    42  S   -0.248475
    43  H    0.165693
    44  H    0.159024
    45  H    0.148234
    46  C   -0.600341
    47  O   -0.129341
    48  C   -0.279132
    49  H    0.133134
    50  C   -0.241126
    51  H    0.162459
    52  H    0.146013
    53  H    0.170351
    54  H    0.146534
 Sum of Mulliken charges =  -0.00000

 Dipole moment (field-independent basis, Debye):
    X=              5.2110    Y=             -0.7630    Z=              0.2799  Tot=              5.2740
 Quadrupole moment (field-independent basis, Debye-Ang):
   XX=           -216.6467   YY=           -212.4831   ZZ=           -218.1311
   XY=             -4.6271   XZ=             -2.4625   YZ=             13.7054

 Normal termination of Gaussian 16 at Sun Nov 29 14:43:08 2020.
