 Gaussian 16, Revision C.01,
 Gaussian 16:  ES64L-G16RevC.01  3-Jul-2019

 -------------------------------------
 # opt=modredundant b3lyp/6-311+g(d,p)
 -------------------------------------

 -----------
 NDI_-55.pdb
 -----------
 Symbolic Z-matrix:
 Charge =  0 Multiplicity = 1

 SCF Done:  E(RB3LYP) =  -2359.33603319     A.U. after   18 cycles
 SCF Done:  E(RB3LYP) =  -2359.33681325     A.U. after   16 cycles
 SCF Done:  E(RB3LYP) =  -2359.33743489     A.U. after   13 cycles
 SCF Done:  E(RB3LYP) =  -2359.33756579     A.U. after   14 cycles
 SCF Done:  E(RB3LYP) =  -2359.33758401     A.U. after   12 cycles
 SCF Done:  E(RB3LYP) =  -2359.33758935     A.U. after   12 cycles
 SCF Done:  E(RB3LYP) =  -2359.33759062     A.U. after   11 cycles
 SCF Done:  E(RB3LYP) =  -2359.33759105     A.U. after   10 cycles
 SCF Done:  E(RB3LYP) =  -2359.33759119     A.U. after   11 cycles
 Optimization completed.
    -- Stationary point found.

                         Standard orientation:
 ---------------------------------------------------------------------
 Center     Atomic      Atomic             Coordinates (Angstroms)
 Number     Number       Type             X           Y           Z
 ---------------------------------------------------------------------
      1          6           0        2.698991   -2.944402    0.551217
      2          6           0        2.324665   -1.524668    0.314864
      3          6           0        3.322782   -0.550116    0.087307
      4          6           0        4.687066   -0.909144    0.080120
      5          6           0        5.097153   -2.318200    0.325376
      6          6           0        1.001480   -1.161782    0.337005
      7          6           0        2.927061    0.795947   -0.148063
      8          6           0        1.548297    1.160886   -0.130904
      9          6           0        0.570680    0.183766    0.155836
     10          6           0        1.193426    2.564796   -0.480404
     11          6           0        3.609899    3.158428   -0.699128
     12          6           0        3.946479    1.745893   -0.407479
     13          6           0        5.281941    1.372910   -0.408028
     14          6           0        5.658540    0.048052   -0.161511
     15          1           0        6.699670   -0.247930   -0.162314
     16          1           0        6.025231    2.134034   -0.608966
     17          1           0        0.266314   -1.928946    0.542547
     18          7           0        2.247674    3.460684   -0.744140
     19          7           0        4.065905   -3.246405    0.544574
     20          8           0        1.875878   -3.819770    0.743451
     21          8           0        6.265078   -2.658601    0.334937
     22          8           0        4.462177    4.005759   -0.901780
     23          8           0        0.051941    2.978097   -0.569884
     24          6           0        1.850168    4.834268   -1.085208
     25          1           0        1.224282    4.825620   -1.977498
     26          1           0        1.275228    5.268395   -0.266905
     27          1           0        2.755402    5.407361   -1.258487
     28          6           0        4.423354   -4.651761    0.785816
     29          1           0        4.028063   -4.970479    1.750353
     30          1           0        3.987528   -5.281465    0.009675
     31          1           0        5.505915   -4.727849    0.772850
     32          6           0       -0.872334    0.412618    0.273502
     33          6           0       -1.553424    1.296876    1.077944
     34         16           0       -1.980454   -0.704688   -0.494901
     35          6           0       -2.949680    1.102038    1.059807
     36          1           0       -1.058093    2.065521    1.649771
     37          6           0       -3.374923    0.057405    0.240616
     38          8           0       -3.874841    1.823593    1.747393
     39          6           0       -4.723762   -0.353941   -0.034789
     40          6           0       -3.428032    2.973068    2.461244
     41          6           0       -5.142776   -1.419031   -0.824388
     42         16           0       -6.131679    0.477852    0.615377
     43          1           0       -4.323219    3.433455    2.875514
     44          1           0       -2.754395    2.692239    3.277559
     45          1           0       -2.925788    3.679337    1.792923
     46          6           0       -6.554919   -1.563987   -0.906316
     47          8           0       -4.213567   -2.201935   -1.433057
     48          6           0       -7.209653   -0.608895   -0.179224
     49          1           0       -7.060695   -2.333505   -1.470897
     50          6           0       -4.668221   -3.307180   -2.207982
     51          1           0       -8.275303   -0.486586   -0.060545
     52          1           0       -5.281990   -2.971713   -3.050135
     53          1           0       -3.771732   -3.795825   -2.585100
     54          1           0       -5.236208   -4.012449   -1.592877
 ---------------------------------------------------------------------

 The electronic state is 1-A.
 Alpha  occ. eigenvalues --  -88.88332 -88.88257 -19.17059 -19.16767 -19.12404
 Alpha  occ. eigenvalues --  -19.12354 -19.11808 -19.11726 -14.38564 -14.38126
 Alpha  occ. eigenvalues --  -10.31009 -10.30830 -10.30600 -10.30395 -10.24649
 Alpha  occ. eigenvalues --  -10.24456 -10.23822 -10.23713 -10.23526 -10.22901
 Alpha  occ. eigenvalues --  -10.22643 -10.22549 -10.22253 -10.22246 -10.22113
 Alpha  occ. eigenvalues --  -10.22027 -10.21876 -10.21622 -10.21377 -10.21103
 Alpha  occ. eigenvalues --  -10.21045 -10.20999 -10.20860 -10.20702 -10.18852
 Alpha  occ. eigenvalues --  -10.18819  -7.96891  -7.96810  -5.93209  -5.93120
 Alpha  occ. eigenvalues --   -5.92820  -5.92731  -5.92437  -5.92378  -1.08651
 Alpha  occ. eigenvalues --   -1.08601  -1.08320  -1.08243  -1.06840  -1.06357
 Alpha  occ. eigenvalues --   -0.96213  -0.95687  -0.92431  -0.90286  -0.88724
 Alpha  occ. eigenvalues --   -0.86629  -0.84240  -0.80414  -0.78423  -0.77623
 Alpha  occ. eigenvalues --   -0.76364  -0.75253  -0.75146  -0.73123  -0.72429
 Alpha  occ. eigenvalues --   -0.71788  -0.70290  -0.68815  -0.67122  -0.65860
 Alpha  occ. eigenvalues --   -0.65575  -0.64664  -0.61053  -0.59822  -0.58573
 Alpha  occ. eigenvalues --   -0.57373  -0.56719  -0.56284  -0.55315  -0.54737
 Alpha  occ. eigenvalues --   -0.53499  -0.51672  -0.50248  -0.49884  -0.49742
 Alpha  occ. eigenvalues --   -0.49415  -0.48709  -0.48641  -0.48511  -0.48321
 Alpha  occ. eigenvalues --   -0.48079  -0.47048  -0.46571  -0.46289  -0.45833
 Alpha  occ. eigenvalues --   -0.45518  -0.44956  -0.44540  -0.44261  -0.43744
 Alpha  occ. eigenvalues --   -0.42713  -0.42543  -0.42343  -0.42013  -0.41853
 Alpha  occ. eigenvalues --   -0.41540  -0.41242  -0.41157  -0.40514  -0.39721
 Alpha  occ. eigenvalues --   -0.39655  -0.39188  -0.38791  -0.37634  -0.37474
 Alpha  occ. eigenvalues --   -0.36346  -0.35678  -0.34288  -0.33884  -0.33717
 Alpha  occ. eigenvalues --   -0.33410  -0.32145  -0.31004  -0.30338  -0.29742
 Alpha  occ. eigenvalues --   -0.29277  -0.28921  -0.28661  -0.28090  -0.27276
 Alpha  occ. eigenvalues --   -0.26127  -0.24622  -0.24525  -0.19300
 Alpha virt. eigenvalues --   -0.13074  -0.07164  -0.06377  -0.04663  -0.03935
 Alpha virt. eigenvalues --   -0.00911  -0.00379  -0.00316   0.00052   0.00508
 Alpha virt. eigenvalues --    0.00727   0.01108   0.01406   0.01462   0.01790

 Mulliken charges:
               1
     1  C    0.333302
     2  C   -0.049653
     3  C    0.084034
     4  C    0.243270
     5  C    0.211953
     6  C   -0.607358
     7  C    0.214077
     8  C    0.203007
     9  C    0.488477
    10  C   -0.283782
    11  C    0.403029
    12  C    0.106563
    13  C   -0.522515
    14  C   -0.652455
    15  H    0.159580
    16  H    0.161911
    17  H    0.184577
    18  N   -0.149687
    19  N   -0.144478
    20  O   -0.276618
    21  O   -0.268533
    22  O   -0.277137
    23  O   -0.181607
    24  C   -0.192629
    25  H    0.177226
    26  H    0.171341
    27  H    0.183790
    28  C   -0.197456
    29  H    0.174329
    30  H    0.174350
    31  H    0.182728
    32  C    0.125139
    33  C   -0.245179
    34  S   -0.500389
    35  C   -0.436486
    36  H    0.130788
    37  C    0.532524
    38  O   -0.119989
    39  C    0.909593
    40  C   -0.242105
    41  C   -0.044340
    42  S   -0.236917
    43  H    0.165189
    44  H    0.144050
    45  H    0.160277
    46  C   -0.491534
    47  O   -0.130967
    48  C   -0.282652
    49  H    0.131452
    50  C   -0.240536
    51  H    0.160572
    52  H    0.144960
    53  H    0.167020
    54  H    0.145891
 Sum of Mulliken charges =  -0.00000

 Dipole moment (field-independent basis, Debye):
    X=             -3.8947    Y=             -0.4765    Z=              0.1811  Tot=              3.9279
 Quadrupole moment (field-independent basis, Debye-Ang):
   XX=           -218.5316   YY=           -216.4554   ZZ=           -213.7920
   XY=              3.5374   XZ=              5.8368   YZ=             16.3547

 Normal termination of Gaussian 16 at Sun Nov 29 11:32:22 2020.
