 Gaussian 16, Revision C.01,
 Gaussian 16:  ES64L-G16RevC.01  3-Jul-2019

 -------------------------------------
 # opt=modredundant b3lyp/6-311+g(d,p)
 -------------------------------------

 -----------
 NDI_175.pdb
 -----------
 Symbolic Z-matrix:
 Charge =  0 Multiplicity = 1

 SCF Done:  E(RB3LYP) =  -2359.29145186     A.U. after   17 cycles
 SCF Done:  E(RB3LYP) =  -2359.32170477     A.U. after   17 cycles
 SCF Done:  E(RB3LYP) =  -2359.33074409     A.U. after   16 cycles
 SCF Done:  E(RB3LYP) =  -2359.33306266     A.U. after   14 cycles
 SCF Done:  E(RB3LYP) =  -2359.33357355     A.U. after   13 cycles
 SCF Done:  E(RB3LYP) =  -2359.33370472     A.U. after   16 cycles
 SCF Done:  E(RB3LYP) =  -2359.33379154     A.U. after   16 cycles
 SCF Done:  E(RB3LYP) =  -2359.33388508     A.U. after   12 cycles
 SCF Done:  E(RB3LYP) =  -2359.33400475     A.U. after   16 cycles
 SCF Done:  E(RB3LYP) =  -2359.33405612     A.U. after   12 cycles
 SCF Done:  E(RB3LYP) =  -2359.33408154     A.U. after   12 cycles
 SCF Done:  E(RB3LYP) =  -2359.33409050     A.U. after   13 cycles
 SCF Done:  E(RB3LYP) =  -2359.33409317     A.U. after   11 cycles
 SCF Done:  E(RB3LYP) =  -2359.33409381     A.U. after   12 cycles
 SCF Done:  E(RB3LYP) =  -2359.33409478     A.U. after   12 cycles
 SCF Done:  E(RB3LYP) =  -2359.33409510     A.U. after   11 cycles
 SCF Done:  E(RB3LYP) =  -2359.33409518     A.U. after   10 cycles
 SCF Done:  E(RB3LYP) =  -2359.33409519     A.U. after    9 cycles
 Optimization completed.
    -- Stationary point found.

                         Standard orientation:
 ---------------------------------------------------------------------
 Center     Atomic      Atomic             Coordinates (Angstroms)
 Number     Number       Type             X           Y           Z
 ---------------------------------------------------------------------
      1          6           0       -3.495217   -2.685021   -0.089166
      2          6           0       -2.773501   -1.392029    0.045342
      3          6           0       -3.466754   -0.166867   -0.078034
      4          6           0       -4.850992   -0.149698   -0.330854
      5          6           0       -5.605008   -1.423102   -0.474453
      6          6           0       -1.425128   -1.402990    0.261901
      7          6           0       -2.728162    1.037467    0.069650
      8          6           0       -1.316871    1.014596    0.312383
      9          6           0       -0.617101   -0.225170    0.388225
     10          6           0       -0.671556    2.313728    0.590729
     11          6           0       -2.781619    3.556539    0.140828
     12          6           0       -3.452753    2.252150   -0.036914
     13          6           0       -4.817998    2.252459   -0.294703
     14          6           0       -5.524300    1.057763   -0.444572
     15          1           0       -6.588495    1.053336   -0.641215
     16          1           0       -5.319478    3.208976   -0.370361
     17          1           0       -0.967729   -2.378096    0.291765
     18          7           0       -1.429744    3.490558    0.475392
     19          7           0       -4.868526   -2.614432   -0.339798
     20          8           0       -2.940271   -3.765429    0.008802
     21          8           0       -6.800819   -1.446286   -0.696236
     22          8           0       -3.363797    4.621775    0.023851
     23          8           0        0.497448    2.425270    0.927438
     24          6           0       -0.713948    4.746475    0.740467
     25          1           0       -0.317073    4.738289    1.755587
     26          1           0        0.120468    4.850503    0.046597
     27          1           0       -1.419694    5.560942    0.611387
     28          6           0       -5.574705   -3.896524   -0.473166
     29          1           0       -5.131187   -4.477799   -1.281684
     30          1           0       -5.482635   -4.466244    0.451988
     31          1           0       -6.617505   -3.682598   -0.684656
     32          6           0        0.820422   -0.502464    0.475075
     33          6           0        1.344424   -1.789520    0.645495
     34         16           0        2.134357    0.598989    0.085284
     35          6           0        2.723986   -1.885766    0.448748
     36          1           0        0.752317   -2.643142    0.931043
     37          6           0        3.326161   -0.677252    0.088154
     38          8           0        3.492168   -2.998999    0.590282
     39          6           0        4.715645   -0.448017   -0.184060
     40          6           0        2.836123   -4.238715    0.840416
     41          6           0        5.329049    0.753268   -0.534486
     42         16           0        5.929322   -1.724057   -0.124875
     43          1           0        3.621759   -4.991326    0.872511
     44          1           0        2.311685   -4.220875    1.801396
     45          1           0        2.130703   -4.479446    0.038624
     46          6           0        6.730489    0.650743   -0.747555
     47          8           0        4.578665    1.875444   -0.642757
     48          6           0        7.183240   -0.626472   -0.561956
     49          1           0        7.370545    1.475639   -1.023964
     50          6           0        5.233116    3.099565   -0.965637
     51          1           0        8.196842   -0.984722   -0.658554
     52          1           0        5.710433    3.042963   -1.949101
     53          1           0        4.452062    3.857019   -0.983498
     54          1           0        5.976617    3.359713   -0.205745
 ---------------------------------------------------------------------

 The electronic state is 1-A.
 Alpha  occ. eigenvalues --  -88.88754 -88.88291 -19.17486 -19.17190 -19.12221
 Alpha  occ. eigenvalues --  -19.12187 -19.11474 -19.11275 -14.38388 -14.37774
 Alpha  occ. eigenvalues --  -10.30768 -10.30673 -10.30112 -10.29843 -10.25325
 Alpha  occ. eigenvalues --  -10.24744 -10.24100 -10.24032 -10.23918 -10.22658
 Alpha  occ. eigenvalues --  -10.22489 -10.22467 -10.22086 -10.22079 -10.21956
 Alpha  occ. eigenvalues --  -10.21783 -10.21773 -10.21493 -10.21450 -10.21149
 Alpha  occ. eigenvalues --  -10.20876 -10.20530 -10.20463 -10.20427 -10.19382
 Alpha  occ. eigenvalues --  -10.19333  -7.97306  -7.96757  -5.93615  -5.93226
 Alpha  occ. eigenvalues --   -5.93079  -5.92876  -5.92663  -5.92311  -1.09125
 Alpha  occ. eigenvalues --   -1.08755  -1.08453  -1.07933  -1.06637  -1.05942
 Alpha  occ. eigenvalues --   -0.96013  -0.95376  -0.92000  -0.90506  -0.88948
 Alpha  occ. eigenvalues --   -0.86361  -0.83822  -0.80481  -0.78040  -0.77744
 Alpha  occ. eigenvalues --   -0.76694  -0.75654  -0.74905  -0.73474  -0.72281
 Alpha  occ. eigenvalues --   -0.71428  -0.70768  -0.68890  -0.66845  -0.65659
 Alpha  occ. eigenvalues --   -0.65304  -0.64657  -0.61009  -0.60146  -0.58550
 Alpha  occ. eigenvalues --   -0.57374  -0.56784  -0.56509  -0.55404  -0.54684
 Alpha  occ. eigenvalues --   -0.53612  -0.51362  -0.50149  -0.49891  -0.49343
 Alpha  occ. eigenvalues --   -0.49228  -0.49067  -0.48727  -0.48707  -0.48303
 Alpha  occ. eigenvalues --   -0.48161  -0.47177  -0.46556  -0.46081  -0.45952
 Alpha  occ. eigenvalues --   -0.45588  -0.44906  -0.44283  -0.44038  -0.43446
 Alpha  occ. eigenvalues --   -0.43125  -0.42430  -0.42297  -0.41936  -0.41668
 Alpha  occ. eigenvalues --   -0.41583  -0.41202  -0.40968  -0.40410  -0.39766
 Alpha  occ. eigenvalues --   -0.39440  -0.39176  -0.38882  -0.37568  -0.37112
 Alpha  occ. eigenvalues --   -0.36494  -0.36253  -0.34566  -0.34323  -0.33583
 Alpha  occ. eigenvalues --   -0.33235  -0.31716  -0.30670  -0.30393  -0.29577
 Alpha  occ. eigenvalues --   -0.29192  -0.28592  -0.28471  -0.27693  -0.27231
 Alpha  occ. eigenvalues --   -0.25902  -0.25007  -0.24556  -0.19696
 Alpha virt. eigenvalues --   -0.12681  -0.07817  -0.06198  -0.04222  -0.03703
 Alpha virt. eigenvalues --   -0.00862  -0.00472  -0.00349  -0.00078   0.00411
 Alpha virt. eigenvalues --    0.00965   0.01104   0.01481   0.01991   0.02007

 Mulliken charges:
               1
     1  C    0.325252
     2  C   -0.036592
     3  C    0.178026
     4  C    0.162360
     5  C    0.274046
     6  C    0.051520
     7  C    0.098763
     8  C    0.171060
     9  C    0.428917
    10  C   -0.242535
    11  C    0.239021
    12  C    0.085004
    13  C   -0.466087
    14  C   -0.602545
    15  H    0.157199
    16  H    0.160709
    17  H    0.156832
    18  N   -0.143307
    19  N   -0.145988
    20  O   -0.287840
    21  O   -0.265555
    22  O   -0.280975
    23  O   -0.221770
    24  C   -0.182259
    25  H    0.176485
    26  H    0.172833
    27  H    0.183010
    28  C   -0.198233
    29  H    0.172853
    30  H    0.173328
    31  H    0.182442
    32  C   -0.168374
    33  C   -0.311796
    34  S   -0.607822
    35  C   -0.345546
    36  H    0.127366
    37  C    0.632322
    38  O   -0.134939
    39  C    0.823695
    40  C   -0.227064
    41  C   -0.058524
    42  S   -0.251012
    43  H    0.167982
    44  H    0.147734
    45  H    0.152435
    46  C   -0.533879
    47  O   -0.112271
    48  C   -0.292265
    49  H    0.132991
    50  C   -0.242854
    51  H    0.162850
    52  H    0.144667
    53  H    0.170378
    54  H    0.147956
 Sum of Mulliken charges =  -0.00000

 Dipole moment (field-independent basis, Debye):
    X=              5.5416    Y=             -0.8721    Z=             -0.4514  Tot=              5.6279
 Quadrupole moment (field-independent basis, Debye-Ang):
   XX=           -210.4449   YY=           -213.5765   ZZ=           -222.5286
   XY=             12.9153   XZ=             -8.5301   YZ=             -5.4674

 Normal termination of Gaussian 16 at Sun Nov 29 18:11:23 2020.
