 Gaussian 16, Revision C.01,
 Gaussian 16:  ES64L-G16RevC.01  3-Jul-2019

 -------------------------------------
 # opt=modredundant b3lyp/6-311+g(d,p)
 -------------------------------------

 -----------
 NDI_165.pdb
 -----------
 Symbolic Z-matrix:
 Charge =  0 Multiplicity = 1

 SCF Done:  E(RB3LYP) =  -2359.29808234     A.U. after   18 cycles
 SCF Done:  E(RB3LYP) =  -2359.32232035     A.U. after   18 cycles
 SCF Done:  E(RB3LYP) =  -2359.33116962     A.U. after   16 cycles
 SCF Done:  E(RB3LYP) =  -2359.33372559     A.U. after   14 cycles
 SCF Done:  E(RB3LYP) =  -2359.33448426     A.U. after   14 cycles
 SCF Done:  E(RB3LYP) =  -2359.33453822     A.U. after   16 cycles
 SCF Done:  E(RB3LYP) =  -2359.33477412     A.U. after   12 cycles
 SCF Done:  E(RB3LYP) =  -2359.33487010     A.U. after   13 cycles
 SCF Done:  E(RB3LYP) =  -2359.33492969     A.U. after   16 cycles
 SCF Done:  E(RB3LYP) =  -2359.33500821     A.U. after   12 cycles
 SCF Done:  E(RB3LYP) =  -2359.33505217     A.U. after   13 cycles
 SCF Done:  E(RB3LYP) =  -2359.33505932     A.U. after   12 cycles
 SCF Done:  E(RB3LYP) =  -2359.33506151     A.U. after   10 cycles
 SCF Done:  E(RB3LYP) =  -2359.33506212     A.U. after   11 cycles
 SCF Done:  E(RB3LYP) =  -2359.33506231     A.U. after   10 cycles
 SCF Done:  E(RB3LYP) =  -2359.33506237     A.U. after    9 cycles
 SCF Done:  E(RB3LYP) =  -2359.33506240     A.U. after   10 cycles
 Optimization completed.
    -- Stationary point found.

                         Standard orientation:
 ---------------------------------------------------------------------
 Center     Atomic      Atomic             Coordinates (Angstroms)
 Number     Number       Type             X           Y           Z
 ---------------------------------------------------------------------
      1          6           0       -3.430368   -2.713105   -0.222000
      2          6           0       -2.732121   -1.416554   -0.017981
      3          6           0       -3.442455   -0.197869   -0.105295
      4          6           0       -4.822325   -0.191343   -0.386381
      5          6           0       -5.552736   -1.469137   -0.598632
      6          6           0       -1.386577   -1.413385    0.226871
      7          6           0       -2.730713    1.013946    0.106325
      8          6           0       -1.326817    1.004892    0.377561
      9          6           0       -0.613949   -0.223630    0.416471
     10          6           0       -0.701648    2.299384    0.733546
     11          6           0       -2.823841    3.526447    0.285795
     12          6           0       -3.472357    2.220736    0.036998
     13          6           0       -4.831151    2.209289   -0.248377
     14          6           0       -5.512617    1.008790   -0.463182
     15          1           0       -6.572496    0.995147   -0.681767
     16          1           0       -5.349072    3.158951   -0.293790
     17          1           0       -0.895330   -2.374169    0.219807
     18          7           0       -1.479077    3.467794    0.651081
     19          7           0       -4.799800   -2.653067   -0.498021
     20          8           0       -2.860380   -3.787908   -0.157868
     21          8           0       -6.743278   -1.501006   -0.846344
     22          8           0       -3.420703    4.586241    0.199299
     23          8           0        0.454869    2.408823    1.105982
     24          6           0       -0.792150    4.721950    0.990735
     25          1           0       -0.420936    4.673843    2.014425
     26          1           0        0.058095    4.870439    0.324699
     27          1           0       -1.507791    5.530431    0.879966
     28          6           0       -5.481820   -3.939392   -0.699516
     29          1           0       -5.012498   -4.479080   -1.522158
     30          1           0       -5.398908   -4.546018    0.202752
     31          1           0       -6.523562   -3.733206   -0.923531
     32          6           0        0.826879   -0.467225    0.529161
     33          6           0        1.374363   -1.708237    0.856905
     34         16           0        2.095550    0.598690   -0.036034
     35          6           0        2.756229   -1.797246    0.650008
     36          1           0        0.792572   -2.521429    1.262083
     37          6           0        3.321417   -0.636656    0.114993
     38          8           0        3.555985   -2.862062    0.926615
     39          6           0        4.698301   -0.415098   -0.222486
     40          6           0        2.935219   -4.070910    1.354053
     41          6           0        5.270417    0.739098   -0.752218
     42         16           0        5.946516   -1.640758   -0.016627
     43          1           0        3.740076   -4.793505    1.475576
     44          1           0        2.423145   -3.933890    2.312114
     45          1           0        2.225729   -4.435648    0.604299
     46          6           0        6.669462    0.641915   -0.983647
     47          8           0        4.486450    1.817158   -0.997405
     48          6           0        7.161026   -0.585349   -0.633492
     49          1           0        7.280618    1.435255   -1.388194
     50          6           0        5.100806    2.998477   -1.504983
     51          1           0        8.181611   -0.929368   -0.704374
     52          1           0        5.558881    2.814993   -2.482107
     53          1           0        4.299813    3.727532   -1.610542
     54          1           0        5.852761    3.381025   -0.807730
 ---------------------------------------------------------------------

 The electronic state is 1-A.
 Alpha  occ. eigenvalues --  -88.88686 -88.88283 -19.17444 -19.17136 -19.12241
 Alpha  occ. eigenvalues --  -19.12221 -19.11405 -19.11371 -14.38416 -14.37792
 Alpha  occ. eigenvalues --  -10.30808 -10.30701 -10.30144 -10.29943 -10.25220
 Alpha  occ. eigenvalues --  -10.24712 -10.24090 -10.23883 -10.23853 -10.22541
 Alpha  occ. eigenvalues --  -10.22517 -10.22413 -10.22127 -10.22072 -10.22024
 Alpha  occ. eigenvalues --  -10.21869 -10.21862 -10.21556 -10.21389 -10.21197
 Alpha  occ. eigenvalues --  -10.20896 -10.20642 -10.20579 -10.20429 -10.19342
 Alpha  occ. eigenvalues --  -10.19264  -7.97238  -7.96785  -5.93547  -5.93158
 Alpha  occ. eigenvalues --   -5.93106  -5.92807  -5.92695  -5.92338  -1.09059
 Alpha  occ. eigenvalues --   -1.08697  -1.08482  -1.07925  -1.06668  -1.05980
 Alpha  occ. eigenvalues --   -0.96042  -0.95388  -0.92079  -0.90505  -0.88950
 Alpha  occ. eigenvalues --   -0.86416  -0.83888  -0.80487  -0.78093  -0.77726
 Alpha  occ. eigenvalues --   -0.76662  -0.75611  -0.74923  -0.73450  -0.72296
 Alpha  occ. eigenvalues --   -0.71414  -0.70741  -0.68889  -0.66873  -0.65662
 Alpha  occ. eigenvalues --   -0.65321  -0.64670  -0.61005  -0.60098  -0.58546
 Alpha  occ. eigenvalues --   -0.57342  -0.56762  -0.56512  -0.55300  -0.54724
 Alpha  occ. eigenvalues --   -0.53633  -0.51397  -0.50140  -0.49902  -0.49402
 Alpha  occ. eigenvalues --   -0.49253  -0.49034  -0.48686  -0.48680  -0.48313
 Alpha  occ. eigenvalues --   -0.48169  -0.47020  -0.46546  -0.46123  -0.45932
 Alpha  occ. eigenvalues --   -0.45615  -0.44868  -0.44346  -0.44093  -0.43544
 Alpha  occ. eigenvalues --   -0.43048  -0.42391  -0.42264  -0.41920  -0.41767
 Alpha  occ. eigenvalues --   -0.41619  -0.41172  -0.40987  -0.40420  -0.39774
 Alpha  occ. eigenvalues --   -0.39412  -0.39167  -0.38866  -0.37663  -0.37189
 Alpha  occ. eigenvalues --   -0.36571  -0.36178  -0.34515  -0.34284  -0.33581
 Alpha  occ. eigenvalues --   -0.33370  -0.31746  -0.30727  -0.30334  -0.29631
 Alpha  occ. eigenvalues --   -0.29209  -0.28615  -0.28488  -0.27799  -0.27281
 Alpha  occ. eigenvalues --   -0.25913  -0.25015  -0.24397  -0.19617
 Alpha virt. eigenvalues --   -0.12776  -0.07668  -0.06213  -0.04310  -0.03706
 Alpha virt. eigenvalues --   -0.00846  -0.00515  -0.00360  -0.00038   0.00378
 Alpha virt. eigenvalues --    0.00939   0.01080   0.01488   0.01871   0.01993

 Mulliken charges:
               1
     1  C    0.296707
     2  C   -0.001397
     3  C    0.207547
     4  C    0.186244
     5  C    0.245221
     6  C    0.110873
     7  C    0.136620
     8  C    0.202777
     9  C    0.355497
    10  C   -0.307022
    11  C    0.273585
    12  C    0.084294
    13  C   -0.473859
    14  C   -0.615527
    15  H    0.157637
    16  H    0.160592
    17  H    0.157135
    18  N   -0.125818
    19  N   -0.143835
    20  O   -0.286728
    21  O   -0.267114
    22  O   -0.281186
    23  O   -0.221620
    24  C   -0.182214
    25  H    0.177128
    26  H    0.173603
    27  H    0.182524
    28  C   -0.195444
    29  H    0.173214
    30  H    0.173190
    31  H    0.182376
    32  C   -0.133262
    33  C   -0.564037
    34  S   -0.622388
    35  C   -0.356890
    36  H    0.131598
    37  C    0.744541
    38  O   -0.134222
    39  C    0.869428
    40  C   -0.226516
    41  C   -0.030885
    42  S   -0.247948
    43  H    0.167447
    44  H    0.146791
    45  H    0.152930
    46  C   -0.543652
    47  O   -0.119007
    48  C   -0.283341
    49  H    0.132761
    50  C   -0.243202
    51  H    0.162504
    52  H    0.145409
    53  H    0.168793
    54  H    0.148149
 Sum of Mulliken charges =  -0.00000

 Dipole moment (field-independent basis, Debye):
    X=              5.2287    Y=             -0.8156    Z=             -0.5101  Tot=              5.3165
 Quadrupole moment (field-independent basis, Debye-Ang):
   XX=           -211.6297   YY=           -215.0376   ZZ=           -220.2781
   XY=             11.8173   XZ=            -10.1316   YZ=             -9.3766

 Normal termination of Gaussian 16 at Sun Nov 29 17:26:33 2020.
