 Gaussian 16, Revision C.01,
 Gaussian 16:  ES64L-G16RevC.01  3-Jul-2019

 -------------------------------------
 # opt=modredundant b3lyp/6-311+g(d,p)
 -------------------------------------

 ------------
 NDI_-165.pdb
 ------------
 Symbolic Z-matrix:
 Charge =  0 Multiplicity = 1

 SCF Done:  E(RB3LYP) =  -2359.29987139     A.U. after   17 cycles
 SCF Done:  E(RB3LYP) =  -2359.32330979     A.U. after   18 cycles
 SCF Done:  E(RB3LYP) =  -2359.33239023     A.U. after   16 cycles
 SCF Done:  E(RB3LYP) =  -2359.33405716     A.U. after   14 cycles
 SCF Done:  E(RB3LYP) =  -2359.33454888     A.U. after   13 cycles
 SCF Done:  E(RB3LYP) =  -2359.33462181     A.U. after   13 cycles
 SCF Done:  E(RB3LYP) =  -2359.33467777     A.U. after   13 cycles
 SCF Done:  E(RB3LYP) =  -2359.33475205     A.U. after   12 cycles
 SCF Done:  E(RB3LYP) =  -2359.33482906     A.U. after   14 cycles
 SCF Done:  E(RB3LYP) =  -2359.33485371     A.U. after   13 cycles
 SCF Done:  E(RB3LYP) =  -2359.33487143     A.U. after   12 cycles
 SCF Done:  E(RB3LYP) =  -2359.33488151     A.U. after   12 cycles
 SCF Done:  E(RB3LYP) =  -2359.33488414     A.U. after   13 cycles
 SCF Done:  E(RB3LYP) =  -2359.33488512     A.U. after   11 cycles
 SCF Done:  E(RB3LYP) =  -2359.33488544     A.U. after   10 cycles
 SCF Done:  E(RB3LYP) =  -2359.33488547     A.U. after    9 cycles
 SCF Done:  E(RB3LYP) =  -2359.33488552     A.U. after   11 cycles
 Optimization completed.
    -- Stationary point found.

                         Standard orientation:
 ---------------------------------------------------------------------
 Center     Atomic      Atomic             Coordinates (Angstroms)
 Number     Number       Type             X           Y           Z
 ---------------------------------------------------------------------
      1          6           0       -3.418901   -2.710364    0.281964
      2          6           0       -2.731401   -1.408102    0.076189
      3          6           0       -3.461653   -0.198623    0.103889
      4          6           0       -4.853481   -0.207710    0.315562
      5          6           0       -5.576855   -1.492471    0.508909
      6          6           0       -1.380831   -1.392979   -0.132010
      7          6           0       -2.754453    1.018153   -0.092389
      8          6           0       -1.338685    1.023235   -0.303491
      9          6           0       -0.611079   -0.199549   -0.325387
     10          6           0       -0.708141    2.330784   -0.582747
     11          6           0       -2.875503    3.527073   -0.309747
     12          6           0       -3.515414    2.215044   -0.076817
     13          6           0       -4.887274    2.188872    0.138667
     14          6           0       -5.563432    0.983355    0.337200
     15          1           0       -6.632965    0.958072    0.500642
     16          1           0       -5.418616    3.132157    0.141493
     17          1           0       -0.883374   -2.348953   -0.089015
     18          7           0       -1.507876    3.485989   -0.577959
     19          7           0       -4.803719   -2.666948    0.469190
     20          8           0       -2.827157   -3.775166    0.297612
     21          8           0       -6.778490   -1.537555    0.692769
     22          8           0       -3.494256    4.577605   -0.283946
     23          8           0        0.480043    2.465199   -0.829269
     24          6           0       -0.813483    4.750120   -0.860969
     25          1           0       -0.032121    4.918144   -0.119449
     26          1           0       -0.347225    4.702040   -1.844953
     27          1           0       -1.550440    5.546088   -0.824306
     28          6           0       -5.476895   -3.958886    0.664290
     29          1           0       -5.288723   -4.603301   -0.194487
     30          1           0       -5.084316   -4.449350    1.555580
     31          1           0       -6.539794   -3.768366    0.773159
     32          6           0        0.829234   -0.448964   -0.447914
     33          6           0        1.356970   -1.705826   -0.756114
     34         16           0        2.131402    0.617667    0.047747
     35          6           0        2.741478   -1.806882   -0.587276
     36          1           0        0.758709   -2.523987   -1.124403
     37          6           0        3.335030   -0.638910   -0.100564
     38          8           0        3.515665   -2.898015   -0.831960
     39          6           0        4.724437   -0.426769    0.189260
     40          6           0        2.903216   -4.029694   -1.443234
     41          6           0        5.327545    0.734627    0.666738
     42         16           0        5.950765   -1.674146   -0.019850
     43          1           0        3.699949   -4.755855   -1.593706
     44          1           0        2.135692   -4.462931   -0.793641
     45          1           0        2.462916   -3.763501   -2.409616
     46          6           0        6.732121    0.625966    0.855845
     47          8           0        4.566617    1.831707    0.897658
     48          6           0        7.197203   -0.617268    0.526434
     49          1           0        7.365560    1.422772    1.216990
     50          6           0        5.200417    2.998467    1.414724
     51          1           0        8.215273   -0.972449    0.575194
     52          1           0        5.955869    3.376900    0.718888
     53          1           0        4.410794    3.738447    1.529373
     54          1           0        5.658904    2.798059    2.388296
 ---------------------------------------------------------------------

 The electronic state is 1-A.
 Alpha  occ. eigenvalues --  -88.88651 -88.88253 -19.17386 -19.17125 -19.12240
 Alpha  occ. eigenvalues --  -19.12219 -19.11492 -19.11337 -14.38414 -14.37818
 Alpha  occ. eigenvalues --  -10.30804 -10.30699 -10.30159 -10.29912 -10.25187
 Alpha  occ. eigenvalues --  -10.24681 -10.24034 -10.23953 -10.23877 -10.22557
 Alpha  occ. eigenvalues --  -10.22482 -10.22387 -10.22173 -10.22052 -10.21975
 Alpha  occ. eigenvalues --  -10.21852 -10.21836 -10.21536 -10.21365 -10.21161
 Alpha  occ. eigenvalues --  -10.20896 -10.20611 -10.20549 -10.20435 -10.19277
 Alpha  occ. eigenvalues --  -10.19231  -7.97203  -7.96727  -5.93512  -5.93123
 Alpha  occ. eigenvalues --   -5.93049  -5.92772  -5.92634  -5.92283  -1.09015
 Alpha  occ. eigenvalues --   -1.08686  -1.08482  -1.07969  -1.06667  -1.05992
 Alpha  occ. eigenvalues --   -0.96043  -0.95413  -0.92055  -0.90443  -0.88894
 Alpha  occ. eigenvalues --   -0.86392  -0.83879  -0.80470  -0.78083  -0.77683
 Alpha  occ. eigenvalues --   -0.76636  -0.75575  -0.74935  -0.73415  -0.72299
 Alpha  occ. eigenvalues --   -0.71427  -0.70696  -0.68854  -0.66873  -0.65673
 Alpha  occ. eigenvalues --   -0.65325  -0.64681  -0.60972  -0.60070  -0.58548
 Alpha  occ. eigenvalues --   -0.57338  -0.56745  -0.56468  -0.55304  -0.54703
 Alpha  occ. eigenvalues --   -0.53608  -0.51393  -0.50126  -0.49909  -0.49366
 Alpha  occ. eigenvalues --   -0.49250  -0.49001  -0.48687  -0.48658  -0.48301
 Alpha  occ. eigenvalues --   -0.48158  -0.47097  -0.46542  -0.46114  -0.45923
 Alpha  occ. eigenvalues --   -0.45599  -0.44922  -0.44309  -0.44045  -0.43490
 Alpha  occ. eigenvalues --   -0.43029  -0.42465  -0.42235  -0.41924  -0.41676
 Alpha  occ. eigenvalues --   -0.41611  -0.41204  -0.40988  -0.40416  -0.39711
 Alpha  occ. eigenvalues --   -0.39443  -0.39107  -0.38908  -0.37538  -0.37137
 Alpha  occ. eigenvalues --   -0.36480  -0.36141  -0.34488  -0.34193  -0.33676
 Alpha  occ. eigenvalues --   -0.33276  -0.31756  -0.30703  -0.30289  -0.29635
 Alpha  occ. eigenvalues --   -0.29201  -0.28613  -0.28522  -0.27767  -0.27256
 Alpha  occ. eigenvalues --   -0.25920  -0.24961  -0.24429  -0.19619
 Alpha virt. eigenvalues --   -0.12732  -0.07653  -0.06235  -0.04284  -0.03707
 Alpha virt. eigenvalues --   -0.00826  -0.00490  -0.00358  -0.00023   0.00401
 Alpha virt. eigenvalues --    0.00961   0.01095   0.01511   0.01898   0.01998

 Mulliken charges:
               1
     1  C    0.294733
     2  C   -0.018475
     3  C    0.194977
     4  C    0.142771
     5  C    0.269767
     6  C    0.008610
     7  C    0.151267
     8  C    0.177439
     9  C    0.390771
    10  C   -0.125854
    11  C    0.243270
    12  C    0.100427
    13  C   -0.484046
    14  C   -0.607466
    15  H    0.157384
    16  H    0.160498
    17  H    0.160341
    18  N   -0.159609
    19  N   -0.142789
    20  O   -0.287052
    21  O   -0.267094
    22  O   -0.280405
    23  O   -0.218615
    24  C   -0.192621
    25  H    0.174432
    26  H    0.175884
    27  H    0.183188
    28  C   -0.196652
    29  H    0.172671
    30  H    0.173814
    31  H    0.182864
    32  C   -0.183848
    33  C   -0.541959
    34  S   -0.561553
    35  C   -0.344617
    36  H    0.133855
    37  C    0.713994
    38  O   -0.134699
    39  C    0.843046
    40  C   -0.227390
    41  C   -0.025169
    42  S   -0.250479
    43  H    0.167855
    44  H    0.149452
    45  H    0.150043
    46  C   -0.532932
    47  O   -0.116621
    48  C   -0.287040
    49  H    0.132641
    50  C   -0.243812
    51  H    0.162478
    52  H    0.146502
    53  H    0.169840
    54  H    0.145982
 Sum of Mulliken charges =  -0.00000

 Dipole moment (field-independent basis, Debye):
    X=              5.2881    Y=             -0.7479    Z=              0.1317  Tot=              5.3424
 Quadrupole moment (field-independent basis, Debye-Ang):
   XX=           -211.6134   YY=           -215.6168   ZZ=           -219.5676
   XY=             12.5407   XZ=              7.8658   YZ=             10.4514

 Normal termination of Gaussian 16 at Sun Nov 29 15:27:11 2020.
