 Gaussian 16, Revision C.01,
 Gaussian 16:  ES64L-G16RevC.01  3-Jul-2019

 -------------------------------------
 # opt=modredundant b3lyp/6-311+g(d,p)
 -------------------------------------

 ---------
 OBT_0.pdb
 ---------
 Symbolic Z-matrix:
 Charge =  0 Multiplicity = 1

 SCF Done:  E(RB3LYP) =  -2360.32013618     A.U. after   16 cycles
 SCF Done:  E(RB3LYP) =  -2360.36061967     A.U. after   13 cycles
 SCF Done:  E(RB3LYP) =  -2360.36876516     A.U. after   13 cycles
 SCF Done:  E(RB3LYP) =  -2360.37150853     A.U. after   12 cycles
 SCF Done:  E(RB3LYP) =  -2360.37157279     A.U. after   10 cycles
 SCF Done:  E(RB3LYP) =  -2360.37157889     A.U. after   10 cycles
 SCF Done:  E(RB3LYP) =  -2360.37157988     A.U. after    9 cycles
 Optimization completed.
    -- Stationary point found.

                         Standard orientation:
 ---------------------------------------------------------------------
 Center     Atomic      Atomic             Coordinates (Angstroms)
 Number     Number       Type             X           Y           Z
 ---------------------------------------------------------------------
      1          6           0       -3.285524   -0.147893   -0.000001
      2          6           0       -3.743852   -1.458989   -0.000821
      3          6           0       -5.161142   -1.582996   -0.000012
      4          6           0       -5.782524   -0.365502    0.001702
      5         16           0       -4.662813    0.947894    0.001149
      6          8           0       -2.844008   -2.481935   -0.002039
      7          1           0       -5.693896   -2.522723   -0.000377
      8          6           0       -1.922329    0.312426    0.000117
      9          6           0       -1.460584    1.622263    0.000093
     10          6           0       -0.051070    1.746968    0.000122
     11          6           0        0.599463    0.531106    0.000038
     12         16           0       -0.549374   -0.787384    0.000025
     13          8           0       -2.359478    2.645034   -0.000056
     14          1           0        0.470870    2.693074    0.000213
     15          6           0       -3.345141   -3.813437   -0.003461
     16          1           0       -3.943877   -4.009800   -0.899019
     17          1           0       -3.943242   -4.011953    0.892049
     18          6           0       -1.858301    3.976894    0.002780
     19          1           0       -1.258839    4.175766   -0.891768
     20          1           0       -1.260407    4.172519    0.899062
     21          6           0        2.019726    0.276301   -0.000020
     22          6           0        2.676369   -0.935181    0.002863
     23          6           0        4.085303   -0.780774    0.001668
     24          6           0        4.521315    0.537820   -0.001999
     25          6           0        5.935313    0.687466   -0.002911
     26          6           0        6.560294   -0.527576    0.000070
     27         16           0        3.164316    1.633387   -0.004363
     28         16           0        5.443744   -1.874667    0.004023
     29          1           0        2.161828   -1.886295    0.005888
     30          1           0        6.462927    1.631124   -0.005607
     31          1           0       -6.842768   -0.164845    0.002735
     32          1           0        7.621166   -0.725443    0.000181
     33          1           0       -2.732872    4.625068    0.003212
     34          1           0       -2.470871   -4.462364   -0.004518
 ---------------------------------------------------------------------

 The electronic state is 1-A.
 Alpha  occ. eigenvalues --  -88.88200 -88.88065 -88.87556 -88.87541 -19.16320
 Alpha  occ. eigenvalues --  -19.16295 -10.23883 -10.23774 -10.23337 -10.23276
 Alpha  occ. eigenvalues --  -10.22310 -10.21601 -10.21136 -10.20968 -10.20905
 Alpha  occ. eigenvalues --  -10.20884 -10.20759 -10.20047 -10.19145 -10.18913
 Alpha  occ. eigenvalues --  -10.18267 -10.18172  -7.96773  -7.96650  -7.96119
 Alpha  occ. eigenvalues --   -7.96095  -5.93086  -5.92977  -5.92722  -5.92618
 Alpha  occ. eigenvalues --   -5.92446  -5.92406  -5.92321  -5.92159  -5.92059
 Alpha  occ. eigenvalues --   -5.92017  -5.91662  -5.91647  -1.07877  -1.07800
 Alpha  occ. eigenvalues --   -0.91448  -0.89446  -0.87853  -0.84685  -0.78370
 Alpha  occ. eigenvalues --   -0.76962  -0.76067  -0.74642  -0.73279  -0.71997
 Alpha  occ. eigenvalues --   -0.71017  -0.69621  -0.67393  -0.62356  -0.59527
 Alpha  occ. eigenvalues --   -0.57708  -0.56845  -0.55680  -0.54256  -0.53825
 Alpha  occ. eigenvalues --   -0.53471  -0.49700  -0.48814  -0.48166  -0.47910
 Alpha  occ. eigenvalues --   -0.47839  -0.46791  -0.45261  -0.44849  -0.42862
 Alpha  occ. eigenvalues --   -0.42091  -0.41846  -0.41073  -0.40904  -0.40277
 Alpha  occ. eigenvalues --   -0.39322  -0.38699  -0.38343  -0.37128  -0.36195
 Alpha  occ. eigenvalues --   -0.35743  -0.35584  -0.34125  -0.33398  -0.33169
 Alpha  occ. eigenvalues --   -0.32797  -0.32527  -0.29162  -0.28129  -0.24648
 Alpha  occ. eigenvalues --   -0.24182  -0.23513  -0.22605  -0.17828
 Alpha virt. eigenvalues --   -0.06861  -0.02525  -0.00495  -0.00422  -0.00322
 Alpha virt. eigenvalues --    0.00071   0.00299   0.00806   0.01422   0.01706
 Alpha virt. eigenvalues --    0.01990   0.02546   0.02675   0.02822   0.03053

 Mulliken charges:
               1
     1  C    0.848811
     2  C   -0.001259
     3  C   -0.600773
     4  C   -0.310387
     5  S   -0.267649
     6  O   -0.134436
     7  H    0.128857
     8  C    0.508065
     9  C   -0.021837
    10  C   -0.432870
    11  C   -0.089747
    12  S   -0.752070
    13  O   -0.143621
    14  H    0.133476
    15  C   -0.236349
    16  H    0.142944
    17  H    0.142956
    18  C   -0.219652
    19  H    0.145855
    20  H    0.145973
    21  C    0.522040
    22  C    0.516713
    23  C    0.470716
    24  C    0.083429
    25  C   -0.277268
    26  C   -0.203110
    27  S   -0.581430
    28  S   -0.435521
    29  H    0.131233
    30  H    0.133223
    31  H    0.157982
    32  H    0.166688
    33  H    0.165951
    34  H    0.163068
 Sum of Mulliken charges =  -0.00000

 Dipole moment (field-independent basis, Debye):
    X=             -0.9144    Y=             -0.0634    Z=              0.0021  Tot=              0.9166
 Quadrupole moment (field-independent basis, Debye-Ang):
   XX=           -135.8306   YY=           -131.2909   ZZ=           -164.8751
   XY=              9.9344   XZ=             -0.0143   YZ=              0.0084

 Normal termination of Gaussian 16 at Wed Jun 17 10:23:34 2020.
