 Gaussian 16, Revision C.01,
 Gaussian 16:  ES64L-G16RevC.01  3-Jul-2019

 -------------------------------------
 # opt=modredundant b3lyp/6-311+g(d,p)
 -------------------------------------

 ----------
 OBT_90.pdb
 ----------
 Symbolic Z-matrix:
 Charge =  0 Multiplicity = 1

 SCF Done:  E(RB3LYP) =  -2360.31429049     A.U. after   16 cycles
 SCF Done:  E(RB3LYP) =  -2360.35500412     A.U. after   13 cycles
 SCF Done:  E(RB3LYP) =  -2360.36337258     A.U. after   13 cycles
 SCF Done:  E(RB3LYP) =  -2360.36611266     A.U. after   12 cycles
 SCF Done:  E(RB3LYP) =  -2360.36617690     A.U. after   11 cycles
 SCF Done:  E(RB3LYP) =  -2360.36618356     A.U. after   11 cycles
 SCF Done:  E(RB3LYP) =  -2360.36618431     A.U. after   10 cycles
 SCF Done:  E(RB3LYP) =  -2360.36618453     A.U. after    9 cycles
 SCF Done:  E(RB3LYP) =  -2360.36618460     A.U. after    9 cycles
 Optimization completed.
    -- Stationary point found.

                         Standard orientation:
 ---------------------------------------------------------------------
 Center     Atomic      Atomic             Coordinates (Angstroms)
 Number     Number       Type             X           Y           Z
 ---------------------------------------------------------------------
      1          6           0        3.207458   -0.373188   -0.409473
      2          6           0        4.052038   -0.793922    0.596467
      3          6           0        5.336743   -1.214381    0.129668
      4          6           0        5.452812   -1.108726   -1.228081
      5         16           0        4.016818   -0.499912   -1.959885
      6          8           0        3.630449   -0.780295    1.888496
      7          1           0        6.133268   -1.575750    0.763848
      8          6           0        1.849512    0.133198   -0.284602
      9          6           0        1.435491    1.434165   -0.091412
     10          6           0        0.022829    1.580409    0.009897
     11          6           0       -0.656696    0.387061   -0.106284
     12         16           0        0.458909   -0.933430   -0.342156
     13          8           0        2.352438    2.433266   -0.014119
     14          1           0       -0.478294    2.525509    0.162722
     15          6           0        4.543013   -1.219759    2.886487
     16          1           0        5.440273   -0.591802    2.911127
     17          1           0        4.831170   -2.265426    2.732410
     18          6           0        1.874422    3.756923    0.192223
     19          1           0        1.334245    3.842307    1.141297
     20          1           0        1.226825    4.080688   -0.629854
     21          6           0       -2.085267    0.163391   -0.054073
     22          6           0       -2.772089   -1.023696   -0.168704
     23          6           0       -4.174416   -0.842915   -0.064906
     24          6           0       -4.571967    0.473499    0.129176
     25          6           0       -5.979267    0.651004    0.232459
     26          6           0       -6.636004   -0.541178    0.114870
     27         16           0       -3.187923    1.531697    0.186910
     28         16           0       -5.560331   -1.899661   -0.123385
     29          1           0       -2.284072   -1.976805   -0.320343
     30          1           0       -6.479690    1.597247    0.384005
     31          1           0        6.308700   -1.356686   -1.836985
     32          1           0       -7.700360   -0.715605    0.152823
     33          1           0        2.758768    4.391310    0.223618
     34          1           0        4.014833   -1.129151    3.834294
 ---------------------------------------------------------------------

 The electronic state is 1-A.
 Alpha  occ. eigenvalues --  -88.88430 -88.88344 -88.87625 -88.87514 -19.15753
 Alpha  occ. eigenvalues --  -19.15643 -10.23962 -10.23763 -10.22931 -10.22880
 Alpha  occ. eigenvalues --  -10.22550 -10.22159 -10.21212 -10.21155 -10.21015
 Alpha  occ. eigenvalues --  -10.20396 -10.20301 -10.20038 -10.19365 -10.19255
 Alpha  occ. eigenvalues --  -10.18329 -10.18141  -7.97002  -7.96929  -7.96229
 Alpha  occ. eigenvalues --   -7.96109  -5.93315  -5.93255  -5.92950  -5.92895
 Alpha  occ. eigenvalues --   -5.92551  -5.92539  -5.92441  -5.92398  -5.92164
 Alpha  occ. eigenvalues --   -5.92029  -5.91782  -5.91701  -1.07418  -1.07242
 Alpha  occ. eigenvalues --   -0.91718  -0.89407  -0.87873  -0.84898  -0.78163
 Alpha  occ. eigenvalues --   -0.77148  -0.75448  -0.74816  -0.73248  -0.72064
 Alpha  occ. eigenvalues --   -0.71221  -0.69267  -0.67389  -0.62335  -0.58946
 Alpha  occ. eigenvalues --   -0.57585  -0.56837  -0.55595  -0.54770  -0.53974
 Alpha  occ. eigenvalues --   -0.53383  -0.49948  -0.49025  -0.47662  -0.47563
 Alpha  occ. eigenvalues --   -0.47268  -0.46402  -0.45096  -0.44617  -0.42941
 Alpha  occ. eigenvalues --   -0.42284  -0.41718  -0.41291  -0.40909  -0.39828
 Alpha  occ. eigenvalues --   -0.39512  -0.38857  -0.38465  -0.37132  -0.35554
 Alpha  occ. eigenvalues --   -0.34941  -0.34901  -0.34501  -0.34091  -0.33865
 Alpha  occ. eigenvalues --   -0.33096  -0.32419  -0.29132  -0.26291  -0.24876
 Alpha  occ. eigenvalues --   -0.23768  -0.23674  -0.21799  -0.19747
 Alpha virt. eigenvalues --   -0.06656  -0.02798  -0.01356  -0.00531  -0.00374
 Alpha virt. eigenvalues --    0.00002   0.00311   0.00710   0.01240   0.01464
 Alpha virt. eigenvalues --    0.01929   0.02009   0.02450   0.02784   0.02827

 Mulliken charges:
               1
     1  C    0.075790
     2  C   -0.412082
     3  C    0.104012
     4  C   -0.281496
     5  S   -0.043567
     6  O   -0.112476
     7  H    0.129982
     8  C    0.169453
     9  C   -0.129467
    10  C    0.031603
    11  C    0.137377
    12  S   -0.622130
    13  O   -0.115039
    14  H    0.132368
    15  C   -0.239611
    16  H    0.144301
    17  H    0.146406
    18  C   -0.246884
    19  H    0.146882
    20  H    0.146989
    21  C    0.459538
    22  C    0.370882
    23  C    0.450432
    24  C    0.059591
    25  C   -0.181059
    26  C   -0.189733
    27  S   -0.620542
    28  S   -0.430408
    29  H    0.136467
    30  H    0.133741
    31  H    0.158906
    32  H    0.167883
    33  H    0.162155
    34  H    0.159735
 Sum of Mulliken charges =  -0.00000

 Dipole moment (field-independent basis, Debye):
    X=              0.9149    Y=              1.1001    Z=              1.5978  Tot=              2.1448
 Quadrupole moment (field-independent basis, Debye-Ang):
   XX=           -128.9725   YY=           -144.1157   ZZ=           -156.3523
   XY=             -7.0207   XZ=              5.9189   YZ=             -0.2809

 Normal termination of Gaussian 16 at Wed Jun 17 10:58:41 2020.
