 Gaussian 16, Revision C.01,
 Gaussian 16:  ES64L-G16RevC.01  3-Jul-2019

 -----------------
 # mp2/aug-cc-pvdz
 -----------------

 --------------
 pgT2_TT_45.pdb
 --------------
 Symbolic Z-matrix:
 Charge =  0 Multiplicity = 1

                         Standard orientation:
 ---------------------------------------------------------------------
 Center     Atomic      Atomic             Coordinates (Angstroms)
 Number     Number       Type             X           Y           Z
 ---------------------------------------------------------------------
      1          6           0        3.820581    0.371207    0.312073
      2          6           0        2.460581    0.811602    0.450821
      3          6           0        1.560648   -0.089054   -0.008026
      4          6           0        3.920648   -0.849734   -0.245859
      5         16           0        2.360719   -1.500195   -0.635374
      6          1           0        4.820662   -1.400190   -0.454599
      7          6           0        0.100657    0.011138    0.001249
      8         16           0       -0.678977    1.500414   -0.491526
      9          6           0       -2.249167    0.811068   -0.210980
     10          6           0       -2.139484   -0.488244    0.211224
     11          6           0       -0.789585   -0.948206    0.332505
     12          1           0       -0.509834   -1.937672    0.674258
     13         16           0       -3.709671   -1.187607    0.481787
     14          6           0       -4.479315    0.311718    0.018999
     15          6           0       -3.599065    1.271030   -0.332261
     16          1           0       -5.549306    0.381846    0.018473
     17          1           0       -3.888828    2.260547   -0.644018
     18          1           0        2.180522    1.752383    0.899150
     19          8           0        4.890519    1.091727    0.701284
     20          1           0        4.630490    1.932323    1.039787
 ---------------------------------------------------------------------

 SCF Done:  E(RHF) =  -1649.64359164     A.U. after   17 cycles
 E2 =    -0.1967783679D+01 EUMP2 =    -0.16516113753175D+04

 The electronic state is 1-A.
 Alpha  occ. eigenvalues --  -91.99626 -91.99443 -91.98965 -20.60801 -11.31353
 Alpha  occ. eigenvalues --  -11.29482 -11.29399 -11.28142 -11.27850 -11.27711
 Alpha  occ. eigenvalues --  -11.26300 -11.26153 -11.25564 -11.25380  -8.99803
 Alpha  occ. eigenvalues --   -8.99606  -8.99154  -6.67968  -6.67890  -6.67771
 Alpha  occ. eigenvalues --   -6.67694  -6.67678  -6.67488  -6.67322  -6.67232
 Alpha  occ. eigenvalues --   -6.67031  -1.42832  -1.22273  -1.18665  -1.13338
 Alpha  occ. eigenvalues --   -1.03083  -1.02864  -0.99197  -0.96018  -0.95116
 Alpha  occ. eigenvalues --   -0.84406  -0.78680  -0.77958  -0.75162  -0.72914
 Alpha  occ. eigenvalues --   -0.71733  -0.67471  -0.66348  -0.61208  -0.60800
 Alpha  occ. eigenvalues --   -0.58614  -0.57572  -0.56719  -0.54691  -0.53895
 Alpha  occ. eigenvalues --   -0.52852  -0.51252  -0.50069  -0.48261  -0.46935
 Alpha  occ. eigenvalues --   -0.46573  -0.39510  -0.35727  -0.33233  -0.32709
 Alpha  occ. eigenvalues --   -0.29120
 Alpha virt. eigenvalues --    0.03113   0.03367   0.04374   0.04729   0.04938
 Alpha virt. eigenvalues --    0.06277   0.06636   0.08296   0.08325   0.09183
 Alpha virt. eigenvalues --    0.09580   0.10476   0.10600   0.10813   0.11662

 Mulliken charges:
               1
     1  C    0.467263
     2  C    0.243643
     3  C    0.513975
     4  C    0.104263
     5  S    0.438556
     6  H   -0.364876
     7  C    0.337909
     8  S    0.425556
     9  C   -0.715535
    10  C   -0.237460
    11  C    0.226768
    12  H   -0.465142
    13  S    0.603187
    14  C   -0.105048
    15  C    0.532685
    16  H   -0.385017
    17  H   -0.323912
    18  H   -0.584251
    19  O   -0.846735
    20  H    0.134169
 Sum of Mulliken charges =  -0.00000

 Dipole moment (field-independent basis, Debye):
    X=             -1.0882    Y=              1.7195    Z=              0.7481  Tot=              2.1681
 Quadrupole moment (field-independent basis, Debye-Ang):
   XX=            -96.2524   YY=            -95.1524   ZZ=           -107.9647
   XY=             -0.3437   XZ=              2.7608   YZ=              1.5663

 Normal termination of Gaussian 16 at Mon Nov  1 12:16:14 2021.
