 Gaussian 16, Revision C.01,
 Gaussian 16:  ES64L-G16RevC.01  3-Jul-2019

 -----------------
 # mp2/aug-cc-pvdz
 -----------------

 ----------------
 pgT2_TT_-125.pdb
 ----------------
 Symbolic Z-matrix:
 Charge =  0 Multiplicity = 1

                         Standard orientation:
 ---------------------------------------------------------------------
 Center     Atomic      Atomic             Coordinates (Angstroms)
 Number     Number       Type             X           Y           Z
 ---------------------------------------------------------------------
      1          6           0       -3.759988    0.678656   -0.268550
      2          6           0       -2.370047    0.949242   -0.488203
      3          6           0       -1.569839    0.008749    0.060650
      4          6           0       -3.989738   -0.452243    0.420059
      5         16           0       -2.499565   -1.232420    0.839116
      6          1           0       -4.939645   -0.872815    0.709532
      7          6           0       -0.099829   -0.030868    0.020617
      8         16           0        0.760495   -1.429909   -0.601094
      9          6           0        2.280318   -0.659896   -0.330132
     10          6           0        2.120028    0.589427    0.191402
     11          6           0        0.749942    0.958858    0.401842
     12          1           0        0.409726    1.888251    0.832981
     13         16           0        3.639848    1.369428    0.472377
     14          6           0        4.490175   -0.039628   -0.139346
     15          6           0        3.660404   -1.029349   -0.520572
     16          1           0        5.560175   -0.039348   -0.169335
     17          1           0        3.990621   -1.968769   -0.931723
     18          1           0       -2.000232    1.790014   -1.047166
     19          8           0       -4.760165    1.478969   -0.707577
     20          1           0       -4.420328    2.219636   -1.186663
 ---------------------------------------------------------------------

 SCF Done:  E(RHF) =  -1649.64229926     A.U. after   17 cycles
 E2 =    -0.1967635342D+01 EUMP2 =    -0.16516099346036D+04

 The electronic state is 1-A.
 Alpha  occ. eigenvalues --  -91.99534 -91.99343 -91.98899 -20.60665 -11.31268
 Alpha  occ. eigenvalues --  -11.29525 -11.29416 -11.28150 -11.27691 -11.27545
 Alpha  occ. eigenvalues --  -11.26426 -11.26223 -11.25627 -11.25402  -8.99718
 Alpha  occ. eigenvalues --   -8.99523  -8.99103  -6.67883  -6.67802  -6.67690
 Alpha  occ. eigenvalues --   -6.67610  -6.67591  -6.67403  -6.67271  -6.67181
 Alpha  occ. eigenvalues --   -6.66980  -1.42400  -1.22251  -1.18765  -1.13160
 Alpha  occ. eigenvalues --   -1.03274  -1.02674  -0.99131  -0.96203  -0.94877
 Alpha  occ. eigenvalues --   -0.84226  -0.78645  -0.77845  -0.74616  -0.72895
 Alpha  occ. eigenvalues --   -0.72302  -0.67533  -0.66231  -0.61243  -0.60599
 Alpha  occ. eigenvalues --   -0.58195  -0.57373  -0.56670  -0.54973  -0.54030
 Alpha  occ. eigenvalues --   -0.52785  -0.51022  -0.49855  -0.48484  -0.46828
 Alpha  occ. eigenvalues --   -0.46642  -0.39351  -0.35556  -0.33097  -0.32550
 Alpha  occ. eigenvalues --   -0.29663
 Alpha virt. eigenvalues --    0.02956   0.03381   0.04517   0.04751   0.04817
 Alpha virt. eigenvalues --    0.05953   0.07404   0.08233   0.08241   0.09152
 Alpha virt. eigenvalues --    0.09430   0.10332   0.10579   0.10843   0.11466

 Mulliken charges:
               1
     1  C    0.510153
     2  C    0.231169
     3  C    0.492593
     4  C    0.037876
     5  S    0.459436
     6  H   -0.340485
     7  C    0.326124
     8  S    0.423103
     9  C   -0.842270
    10  C   -0.049182
    11  C    0.026197
    12  H   -0.431609
    13  S    0.608074
    14  C   -0.040787
    15  C    0.569065
    16  H   -0.388151
    17  H   -0.324993
    18  H   -0.550408
    19  O   -0.851699
    20  H    0.135795
 Sum of Mulliken charges =  -0.00000

 Dipole moment (field-independent basis, Debye):
    X=              1.2225    Y=              1.3773    Z=             -1.0018  Tot=              2.0964
 Quadrupole moment (field-independent basis, Debye-Ang):
   XX=            -96.9150   YY=            -96.6259   ZZ=           -106.3440
   XY=             -6.4958   XZ=             -0.2495   YZ=             -1.8539

 Normal termination of Gaussian 16 at Mon Nov  1 12:01:11 2021.
