 Gaussian 16, Revision C.01,
 Gaussian 16:  ES64L-G16RevC.01  3-Jul-2019

 -----------------
 # mp2/aug-cc-pvdz
 -----------------

 ---------------
 pgT2_TT_-55.pdb
 ---------------
 Symbolic Z-matrix:
 Charge =  0 Multiplicity = 1

                         Standard orientation:
 ---------------------------------------------------------------------
 Center     Atomic      Atomic             Coordinates (Angstroms)
 Number     Number       Type             X           Y           Z
 ---------------------------------------------------------------------
      1          6           0       -3.820391    0.336592    0.372402
      2          6           0       -2.460333    0.766475    0.562248
      3          6           0       -1.560569   -0.082492   -0.009661
      4          6           0       -3.930660   -0.812322   -0.319362
      5         16           0       -2.360856   -1.411389   -0.771286
      6          1           0       -4.830750   -1.332030   -0.579635
      7          6           0       -0.100570    0.017676    0.009598
      8         16           0        0.688873    1.478707   -0.568561
      9          6           0        2.249164    0.788411   -0.250623
     10          6           0        2.139645   -0.482399    0.247420
     11          6           0        0.789793   -0.932806    0.387535
     12          1           0        0.490164   -1.893468    0.776189
     13         16           0        3.699936   -1.172694    0.565358
     14          6           0        4.479398    0.288287    0.017204
     15          6           0        3.609022    1.238804   -0.380744
     16          1           0        5.549390    0.348434    0.016640
     17          1           0        3.898656    2.209448   -0.759377
     18          1           0       -2.170121    1.655653    1.103487
     19          8           0       -4.890193    1.015696    0.844145
     20          1           0       -4.630043    1.815061    1.265259
 ---------------------------------------------------------------------

 SCF Done:  E(RHF) =  -1649.64293126     A.U. after   17 cycles
 E2 =    -0.1968613701D+01 EUMP2 =    -0.16516115449607D+04

 The electronic state is 1-A.
 Alpha  occ. eigenvalues --  -91.99669 -91.99424 -91.99013 -20.60649 -11.31409
 Alpha  occ. eigenvalues --  -11.29499 -11.29420 -11.28117 -11.27825 -11.27663
 Alpha  occ. eigenvalues --  -11.26350 -11.26232 -11.25615 -11.25500  -8.99824
 Alpha  occ. eigenvalues --   -8.99608  -8.99203  -6.67987  -6.67907  -6.67774
 Alpha  occ. eigenvalues --   -6.67698  -6.67695  -6.67489  -6.67371  -6.67280
 Alpha  occ. eigenvalues --   -6.67081  -1.42595  -1.22196  -1.18596  -1.13216
 Alpha  occ. eigenvalues --   -1.03105  -1.02800  -0.99040  -0.96022  -0.95108
 Alpha  occ. eigenvalues --   -0.84342  -0.78680  -0.77931  -0.74938  -0.72753
 Alpha  occ. eigenvalues --   -0.71839  -0.67433  -0.66230  -0.61149  -0.60616
 Alpha  occ. eigenvalues --   -0.58591  -0.57465  -0.56773  -0.54760  -0.54003
 Alpha  occ. eigenvalues --   -0.52831  -0.51176  -0.49845  -0.48279  -0.46862
 Alpha  occ. eigenvalues --   -0.46691  -0.39424  -0.35324  -0.33201  -0.32604
 Alpha  occ. eigenvalues --   -0.29520
 Alpha virt. eigenvalues --    0.03129   0.03375   0.04391   0.04731   0.04891
 Alpha virt. eigenvalues --    0.06406   0.06781   0.08212   0.08310   0.08974
 Alpha virt. eigenvalues --    0.09674   0.10262   0.10511   0.10843   0.11510

 Mulliken charges:
               1
     1  C    0.514039
     2  C    0.189969
     3  C    0.489164
     4  C    0.104164
     5  S    0.437335
     6  H   -0.359099
     7  C    0.360395
     8  S    0.412388
     9  C   -0.750026
    10  C   -0.226988
    11  C    0.203120
    12  H   -0.460952
    13  S    0.624162
    14  C   -0.070057
    15  C    0.511886
    16  H   -0.384284
    17  H   -0.317413
    18  H   -0.562710
    19  O   -0.846478
    20  H    0.131383
 Sum of Mulliken charges =  -0.00000

 Dipole moment (field-independent basis, Debye):
    X=              1.1149    Y=              1.5863    Z=              0.8831  Tot=              2.1305
 Quadrupole moment (field-independent basis, Debye-Ang):
   XX=            -96.4596   YY=            -96.3040   ZZ=           -106.7881
   XY=              0.5520   XZ=             -3.2632   YZ=              1.8195

 Normal termination of Gaussian 16 at Mon Nov  1 12:07:03 2021.
