 Gaussian 16, Revision C.01,
 Gaussian 16:  ES64L-G16RevC.01  3-Jul-2019

 -----------------
 # mp2/aug-cc-pvdz
 -----------------

 ---------------
 pgT2_TT_-15.pdb
 ---------------
 Symbolic Z-matrix:
 Charge =  0 Multiplicity = 1

                         Standard orientation:
 ---------------------------------------------------------------------
 Center     Atomic      Atomic             Coordinates (Angstroms)
 Number     Number       Type             X           Y           Z
 ---------------------------------------------------------------------
      1          6           0       -3.819928    0.409683    0.118281
      2          6           0       -2.470097    0.880150    0.158505
      3          6           0       -1.559718   -0.109617   -0.000776
      4          6           0       -3.919423   -0.920437   -0.081172
      5         16           0       -2.349136   -1.639980   -0.230360
      6          1           0       -4.819204   -1.510766   -0.151201
      7          6           0       -0.099751    0.000864   -0.010360
      8         16           0        0.669784    1.571041   -0.190799
      9          6           0        2.239988    0.851612   -0.079987
     10          6           0        2.150386   -0.498348    0.080572
     11          6           0        0.810540   -0.998777    0.120364
     12          1           0        0.540838   -2.028805    0.260727
     13         16           0        3.720597   -1.227783    0.181388
     14          6           0        4.470129    0.342392    0.010943
     15          6           0        3.589838    1.342043   -0.119772
     16          1           0        5.550102    0.412756    0.021255
     17          1           0        3.859530    2.382081   -0.240138
     18          1           0       -2.210494    1.910310    0.328139
     19          8           0       -4.910239    1.209382    0.257586
     20          1           0       -4.650576    2.109520    0.377277
 ---------------------------------------------------------------------

 SCF Done:  E(RHF) =  -1649.64352031     A.U. after   17 cycles
 E2 =    -0.1967931626D+01 EUMP2 =    -0.16516114519322D+04

 The electronic state is 1-A.
 Alpha  occ. eigenvalues --  -91.99650 -91.99399 -91.98966 -20.60720 -11.31405
 Alpha  occ. eigenvalues --  -11.29743 -11.29646 -11.28175 -11.27841 -11.27685
 Alpha  occ. eigenvalues --  -11.26393 -11.26203 -11.25747 -11.25360  -8.99857
 Alpha  occ. eigenvalues --   -8.99589  -8.99188  -6.68028  -6.67949  -6.67755
 Alpha  occ. eigenvalues --   -6.67735  -6.67676  -6.67468  -6.67363  -6.67272
 Alpha  occ. eigenvalues --   -6.67068  -1.42248  -1.22501  -1.18871  -1.13425
 Alpha  occ. eigenvalues --   -1.03283  -1.03015  -0.99470  -0.96045  -0.95084
 Alpha  occ. eigenvalues --   -0.84408  -0.78604  -0.78004  -0.75213  -0.73057
 Alpha  occ. eigenvalues --   -0.71549  -0.67644  -0.66233  -0.61191  -0.60548
 Alpha  occ. eigenvalues --   -0.58678  -0.57597  -0.56799  -0.54747  -0.53462
 Alpha  occ. eigenvalues --   -0.53287  -0.52022  -0.50437  -0.48060  -0.47111
 Alpha  occ. eigenvalues --   -0.46637  -0.39738  -0.36395  -0.33683  -0.32753
 Alpha  occ. eigenvalues --   -0.28353
 Alpha virt. eigenvalues --    0.03129   0.03340   0.04314   0.04709   0.04979
 Alpha virt. eigenvalues --    0.05391   0.06713   0.08296   0.08859   0.09369
 Alpha virt. eigenvalues --    0.10079   0.10534   0.10692   0.11084   0.11684

 Mulliken charges:
               1
     1  C    0.382696
     2  C    0.286785
     3  C    0.596276
     4  C    0.050359
     5  S    0.500437
     6  H   -0.384936
     7  C    0.217111
     8  S    0.522680
     9  C   -0.699314
    10  C   -0.097109
    11  C    0.354906
    12  H   -0.509138
    13  S    0.523907
    14  C   -0.178851
    15  C    0.441732
    16  H   -0.368769
    17  H   -0.324147
    18  H   -0.595218
    19  O   -0.854668
    20  H    0.135258
 Sum of Mulliken charges =  -0.00000

 Dipole moment (field-independent basis, Debye):
    X=              1.2073    Y=              1.8027    Z=              0.2854  Tot=              2.1883
 Quadrupole moment (field-independent basis, Debye-Ang):
   XX=            -96.5083   YY=            -92.9797   ZZ=           -110.2356
   XY=              0.3779   XZ=             -0.9300   YZ=              0.5907

 Normal termination of Gaussian 16 at Mon Nov  1 12:11:43 2021.
