 Gaussian 16, Revision C.01,
 Gaussian 16:  ES64L-G16RevC.01  3-Jul-2019

 -----------------
 # mp2/aug-cc-pvdz
 -----------------

 ---------------
 pgT2_TT_-25.pdb
 ---------------
 Symbolic Z-matrix:
 Charge =  0 Multiplicity = 1

                         Standard orientation:
 ---------------------------------------------------------------------
 Center     Atomic      Atomic             Coordinates (Angstroms)
 Number     Number       Type             X           Y           Z
 ---------------------------------------------------------------------
      1          6           0       -3.820899    0.398365    0.189057
      2          6           0       -2.461241    0.869306    0.259380
      3          6           0       -1.560498   -0.110091   -0.000318
      4          6           0       -3.919917   -0.901727   -0.140880
      5         16           0       -2.349368   -1.610661   -0.370421
      6          1           0       -4.819488   -1.482354   -0.251075
      7          6           0       -0.100572    0.000914   -0.009944
      8         16           0        0.668439    1.551423   -0.309850
      9          6           0        2.238880    0.842517   -0.129391
     10          6           0        2.149738   -0.497527    0.120678
     11          6           0        0.800055   -0.988452    0.200359
     12          1           0        0.530703   -2.008623    0.410358
     13         16           0        3.720189   -1.216434    0.291137
     14          6           0        4.469192    0.334064    0.021226
     15          6           0        3.588558    1.333443   -0.189072
     16          1           0        5.549136    0.414808    0.021503
     17          1           0        3.867905    2.353623   -0.379069
     18          1           0       -2.202007    1.879503    0.529378
     19          8           0       -4.901503    1.187636    0.418720
     20          1           0       -4.642161    2.067829    0.618728
 ---------------------------------------------------------------------

 SCF Done:  E(RHF) =  -1649.64382840     A.U. after   17 cycles
 E2 =    -0.1967913114D+01 EUMP2 =    -0.16516117415149D+04

 The electronic state is 1-A.
 Alpha  occ. eigenvalues --  -91.99638 -91.99508 -91.98996 -20.60671 -11.31454
 Alpha  occ. eigenvalues --  -11.29651 -11.29563 -11.28234 -11.27891 -11.27744
 Alpha  occ. eigenvalues --  -11.26400 -11.26216 -11.25678 -11.25435  -8.99837
 Alpha  occ. eigenvalues --   -8.99691  -8.99204  -6.68006  -6.67927  -6.67857
 Alpha  occ. eigenvalues --   -6.67779  -6.67713  -6.67572  -6.67378  -6.67286
 Alpha  occ. eigenvalues --   -6.67082  -1.42403  -1.22337  -1.18718  -1.13323
 Alpha  occ. eigenvalues --   -1.03250  -1.02893  -0.99283  -0.96025  -0.95122
 Alpha  occ. eigenvalues --   -0.84311  -0.78665  -0.77982  -0.75078  -0.73026
 Alpha  occ. eigenvalues --   -0.71571  -0.67623  -0.66142  -0.61218  -0.60535
 Alpha  occ. eigenvalues --   -0.58599  -0.57464  -0.56710  -0.54693  -0.53673
 Alpha  occ. eigenvalues --   -0.53006  -0.51709  -0.50447  -0.48233  -0.47055
 Alpha  occ. eigenvalues --   -0.46721  -0.39636  -0.36121  -0.33538  -0.32764
 Alpha  occ. eigenvalues --   -0.28613
 Alpha virt. eigenvalues --    0.03135   0.03350   0.04326   0.04720   0.04976
 Alpha virt. eigenvalues --    0.05700   0.06686   0.08294   0.08635   0.09407
 Alpha virt. eigenvalues --    0.09770   0.10538   0.10611   0.10960   0.11683

 Mulliken charges:
               1
     1  C    0.423047
     2  C    0.232614
     3  C    0.586887
     4  C    0.072845
     5  S    0.473826
     6  H   -0.376337
     7  C    0.286889
     8  S    0.475312
     9  C   -0.699211
    10  C   -0.126710
    11  C    0.276093
    12  H   -0.498281
    13  S    0.563090
    14  C   -0.155056
    15  C    0.477646
    16  H   -0.367224
    17  H   -0.328067
    18  H   -0.597575
    19  O   -0.848617
    20  H    0.128828
 Sum of Mulliken charges =  -0.00000

 Dipole moment (field-independent basis, Debye):
    X=              1.1982    Y=              1.7487    Z=              0.4584  Tot=              2.1688
 Quadrupole moment (field-independent basis, Debye-Ang):
   XX=            -96.5683   YY=            -93.4237   ZZ=           -109.6990
   XY=              0.3701   XZ=             -1.6055   YZ=              0.9594

 Normal termination of Gaussian 16 at Mon Nov  1 12:10:08 2021.
