 Gaussian 16, Revision C.01,
 Gaussian 16:  ES64L-G16RevC.01  3-Jul-2019

 -----------------
 # mp2/aug-cc-pvdz
 -----------------

 ---------------
 pgT2_TT_-50.pdb
 ---------------
 Symbolic Z-matrix:
 Charge =  0 Multiplicity = 1

                         Standard orientation:
 ---------------------------------------------------------------------
 Center     Atomic      Atomic             Coordinates (Angstroms)
 Number     Number       Type             X           Y           Z
 ---------------------------------------------------------------------
      1          6           0       -3.819946    0.360006    0.339699
      2          6           0       -2.459842    0.789754    0.509511
      3          6           0       -1.560098   -0.090186   -0.011032
      4          6           0       -3.930270   -0.829756   -0.280700
      5         16           0       -2.360464   -1.459826   -0.701323
      6          1           0       -4.830406   -1.369543   -0.520667
      7          6           0       -0.100078    0.009601    0.008635
      8         16           0        0.689994    1.489684   -0.531032
      9          6           0        2.249972    0.799357   -0.231674
     10          6           0        2.139908   -0.480793    0.227894
     11          6           0        0.789876   -0.940650    0.358069
     12          1           0        0.499829   -1.920738    0.717791
     13         16           0        3.699885   -1.181120    0.527249
     14          6           0        4.479965    0.298953    0.017584
     15          6           0        3.600004    1.259213   -0.361849
     16          1           0        5.549973    0.358802    0.017336
     17          1           0        3.900055    2.229293   -0.701576
     18          1           0       -2.179589    1.709538    0.999770
     19          8           0       -4.889739    1.060002    0.770221
     20          1           0       -4.629527    1.879829    1.150450
 ---------------------------------------------------------------------

 SCF Done:  E(RHF) =  -1649.64317222     A.U. after   17 cycles
 E2 =    -0.1968170366D+01 EUMP2 =    -0.16516113425869D+04

 The electronic state is 1-A.
 Alpha  occ. eigenvalues --  -91.99553 -91.99438 -91.99025 -20.60729 -11.31395
 Alpha  occ. eigenvalues --  -11.29525 -11.29410 -11.28252 -11.27767 -11.27617
 Alpha  occ. eigenvalues --  -11.26315 -11.26193 -11.25663 -11.25463  -8.99724
 Alpha  occ. eigenvalues --   -8.99610  -8.99207  -6.67889  -6.67809  -6.67776
 Alpha  occ. eigenvalues --   -6.67697  -6.67597  -6.67492  -6.67376  -6.67284
 Alpha  occ. eigenvalues --   -6.67086  -1.42787  -1.22301  -1.18580  -1.13195
 Alpha  occ. eigenvalues --   -1.03191  -1.02744  -0.99098  -0.96088  -0.95022
 Alpha  occ. eigenvalues --   -0.84390  -0.78681  -0.78091  -0.75101  -0.72813
 Alpha  occ. eigenvalues --   -0.71763  -0.67473  -0.66289  -0.61176  -0.60727
 Alpha  occ. eigenvalues --   -0.58546  -0.57573  -0.56766  -0.54815  -0.54029
 Alpha  occ. eigenvalues --   -0.52859  -0.51164  -0.49877  -0.48263  -0.46834
 Alpha  occ. eigenvalues --   -0.46606  -0.39505  -0.35422  -0.33251  -0.32649
 Alpha  occ. eigenvalues --   -0.29344
 Alpha virt. eigenvalues --    0.03126   0.03371   0.04376   0.04731   0.04911
 Alpha virt. eigenvalues --    0.06378   0.06673   0.08248   0.08313   0.09076
 Alpha virt. eigenvalues --    0.09627   0.10399   0.10528   0.10807   0.11585

 Mulliken charges:
               1
     1  C    0.505486
     2  C    0.231033
     3  C    0.493846
     4  C    0.075999
     5  S    0.431320
     6  H   -0.353263
     7  C    0.356380
     8  S    0.415243
     9  C   -0.688697
    10  C   -0.206500
    11  C    0.179298
    12  H   -0.455968
    13  S    0.601119
    14  C   -0.106278
    15  C    0.527369
    16  H   -0.388447
    17  H   -0.330240
    18  H   -0.575794
    19  O   -0.843134
    20  H    0.131227
 Sum of Mulliken charges =  -0.00000

 Dipole moment (field-independent basis, Debye):
    X=              1.1064    Y=              1.6281    Z=              0.8131  Tot=              2.1297
 Quadrupole moment (field-independent basis, Debye-Ang):
   XX=            -96.2552   YY=            -95.7016   ZZ=           -107.4334
   XY=              0.4329   XZ=             -3.0098   YZ=              1.7305

 Normal termination of Gaussian 16 at Mon Nov  1 12:09:23 2021.
