 Gaussian 16, Revision C.01,
 Gaussian 16:  ES64L-G16RevC.01  3-Jul-2019

 -----------------
 # mp2/aug-cc-pvdz
 -----------------

 --------------
 pgT2_TT_30.pdb
 --------------
 Symbolic Z-matrix:
 Charge =  0 Multiplicity = 1

                         Standard orientation:
 ---------------------------------------------------------------------
 Center     Atomic      Atomic             Coordinates (Angstroms)
 Number     Number       Type             X           Y           Z
 ---------------------------------------------------------------------
      1          6           0        3.819597    0.399200    0.219856
      2          6           0        2.459754    0.859664    0.309856
      3          6           0        1.559397   -0.100293    0.000760
      4          6           0        3.919126   -0.891101   -0.159245
      5         16           0        2.358853   -1.590843   -0.438367
      6          1           0        4.818922   -1.471466   -0.299047
      7          6           0        0.099424    0.000128   -0.008959
      8         16           0       -0.670208    1.540104   -0.359874
      9          6           0       -2.240366    0.830715   -0.148987
     10          6           0       -2.150686   -0.499103    0.141943
     11          6           0       -0.800806   -0.979435    0.231960
     12          1           0       -0.531044   -1.989343    0.472617
     13         16           0       -3.720846   -1.208499    0.342830
     14          6           0       -4.470471    0.331492    0.021909
     15          6           0       -3.590241    1.321055   -0.229011
     16          1           0       -5.550451    0.401810    0.022120
     17          1           0       -3.869998    2.330979   -0.449666
     18          1           0        2.190120    1.849964    0.619213
     19          8           0        4.899888    1.169075    0.489044
     20          1           0        4.630202    2.039326    0.728487
 ---------------------------------------------------------------------

 SCF Done:  E(RHF) =  -1649.64382098     A.U. after   17 cycles
 E2 =    -0.1967690875D+01 EUMP2 =    -0.16516115118551D+04

 The electronic state is 1-A.
 Alpha  occ. eigenvalues --  -91.99607 -91.99488 -91.98943 -20.60782 -11.31442
 Alpha  occ. eigenvalues --  -11.29629 -11.29523 -11.28224 -11.27857 -11.27691
 Alpha  occ. eigenvalues --  -11.26303 -11.26170 -11.25674 -11.25392  -8.99798
 Alpha  occ. eigenvalues --   -8.99676  -8.99135  -6.67966  -6.67886  -6.67842
 Alpha  occ. eigenvalues --   -6.67763  -6.67673  -6.67556  -6.67306  -6.67215
 Alpha  occ. eigenvalues --   -6.67013  -1.42606  -1.22350  -1.18641  -1.13341
 Alpha  occ. eigenvalues --   -1.03172  -1.02920  -0.99321  -0.95963  -0.95125
 Alpha  occ. eigenvalues --   -0.84332  -0.78527  -0.78017  -0.75202  -0.73052
 Alpha  occ. eigenvalues --   -0.71662  -0.67699  -0.66262  -0.61273  -0.60647
 Alpha  occ. eigenvalues --   -0.58473  -0.57488  -0.56755  -0.54695  -0.53784
 Alpha  occ. eigenvalues --   -0.53008  -0.51572  -0.50342  -0.48176  -0.47033
 Alpha  occ. eigenvalues --   -0.46703  -0.39589  -0.36150  -0.33386  -0.32787
 Alpha  occ. eigenvalues --   -0.28688
 Alpha virt. eigenvalues --    0.03128   0.03351   0.04339   0.04720   0.04971
 Alpha virt. eigenvalues --    0.05848   0.06665   0.08301   0.08541   0.09425
 Alpha virt. eigenvalues --    0.09628   0.10521   0.10623   0.10912   0.11688

 Mulliken charges:
               1
     1  C    0.435126
     2  C    0.278424
     3  C    0.539362
     4  C    0.069039
     5  S    0.460413
     6  H   -0.367487
     7  C    0.285964
     8  S    0.446732
     9  C   -0.697748
    10  C   -0.185820
    11  C    0.335419
    12  H   -0.507490
    13  S    0.575928
    14  C   -0.156354
    15  C    0.514775
    16  H   -0.368969
    17  H   -0.332876
    18  H   -0.610004
    19  O   -0.846617
    20  H    0.132182
 Sum of Mulliken charges =  -0.00000

 Dipole moment (field-independent basis, Debye):
    X=             -1.1978    Y=              1.7576    Z=              0.5338  Tot=              2.1929
 Quadrupole moment (field-independent basis, Debye-Ang):
   XX=            -96.5015   YY=            -93.8229   ZZ=           -109.3130
   XY=             -0.3202   XZ=              1.8900   YZ=              1.1421

 Normal termination of Gaussian 16 at Mon Nov  1 12:13:09 2021.
