 Gaussian 16, Revision C.01,
 Gaussian 16:  ES64L-G16RevC.01  3-Jul-2019

 -----------------
 # mp2/aug-cc-pvdz
 -----------------

 ----------------
 pgT2_TT_-100.pdb
 ----------------
 Symbolic Z-matrix:
 Charge =  0 Multiplicity = 1

                         Standard orientation:
 ---------------------------------------------------------------------
 Center     Atomic      Atomic             Coordinates (Angstroms)
 Number     Number       Type             X           Y           Z
 ---------------------------------------------------------------------
      1          6           0        3.780266   -0.512023   -0.428163
      2          6           0        2.400198   -0.692542   -0.767611
      3          6           0        1.570411   -0.030375    0.080910
      4          6           0        3.970526    0.280454    0.639957
      5         16           0        2.460698    0.832289    1.288801
      6          1           0        4.910625    0.561320    1.089210
      7          6           0        0.090416    0.019785    0.020929
      8         16           0       -0.729369    1.398301   -0.682241
      9          6           0       -2.269491    0.659322   -0.380358
     10          6           0       -2.129685   -0.559338    0.202498
     11          6           0       -0.759740   -0.939051    0.443265
     12          1           0       -0.439885   -1.858031    0.905399
     13         16           0       -3.669811   -1.308340    0.494404
     14          6           0       -4.489593    0.070223   -0.188766
     15          6           0       -3.639435    1.039059   -0.611126
     16          1           0       -5.559594    0.090323   -0.238714
     17          1           0       -3.959290    1.958062   -1.063260
     18          1           0        2.040003   -1.274420   -1.596211
     19          8           0        4.800086   -1.083853   -1.116914
     20          1           0        4.479919   -1.575504   -1.845730
 ---------------------------------------------------------------------

 SCF Done:  E(RHF) =  -1649.64102909     A.U. after   17 cycles
 E2 =    -0.1966862629D+01 EUMP2 =    -0.16516078917206D+04

 The electronic state is 1-A.
 Alpha  occ. eigenvalues --  -91.99460 -91.99388 -91.98947 -20.60538 -11.31236
 Alpha  occ. eigenvalues --  -11.29379 -11.29294 -11.28151 -11.27668 -11.27512
 Alpha  occ. eigenvalues --  -11.26389 -11.26172 -11.25653 -11.25476  -8.99634
 Alpha  occ. eigenvalues --   -8.99570  -8.99140  -6.67797  -6.67737  -6.67716
 Alpha  occ. eigenvalues --   -6.67658  -6.67505  -6.67452  -6.67306  -6.67216
 Alpha  occ. eigenvalues --   -6.67018  -1.42458  -1.22188  -1.18636  -1.13191
 Alpha  occ. eigenvalues --   -1.03050  -1.02430  -0.99102  -0.96152  -0.95057
 Alpha  occ. eigenvalues --   -0.83979  -0.78552  -0.77886  -0.74606  -0.72571
 Alpha  occ. eigenvalues --   -0.72513  -0.67573  -0.66043  -0.61040  -0.60500
 Alpha  occ. eigenvalues --   -0.58283  -0.57260  -0.56721  -0.54850  -0.54406
 Alpha  occ. eigenvalues --   -0.52470  -0.50935  -0.49527  -0.48783  -0.46758
 Alpha  occ. eigenvalues --   -0.46677  -0.39073  -0.34989  -0.32603  -0.32372
 Alpha  occ. eigenvalues --   -0.30878
 Alpha virt. eigenvalues --    0.03051   0.03381   0.04541   0.04656   0.04780
 Alpha virt. eigenvalues --    0.06153   0.07919   0.08162   0.08387   0.08722
 Alpha virt. eigenvalues --    0.09421   0.09957   0.10374   0.10744   0.11432

 Mulliken charges:
               1
     1  C    0.608590
     2  C    0.191200
     3  C    0.362131
     4  C    0.042302
     5  S    0.422522
     6  H   -0.337544
     7  C    0.397054
     8  S    0.404626
     9  C   -0.792480
    10  C   -0.198330
    11  C    0.056037
    12  H   -0.420791
    13  S    0.660814
    14  C   -0.048454
    15  C    0.629641
    16  H   -0.384741
    17  H   -0.334910
    18  H   -0.535858
    19  O   -0.843323
    20  H    0.121515
 Sum of Mulliken charges =  -0.00000

 Dipole moment (field-independent basis, Debye):
    X=             -1.2015    Y=             -0.9475    Z=             -1.4606  Tot=              2.1154
 Quadrupole moment (field-independent basis, Debye-Ang):
   XX=            -97.3088   YY=           -100.6704   ZZ=           -102.1744
   XY=             -5.4591   XZ=             -0.4952   YZ=              1.8528

 Normal termination of Gaussian 16 at Mon Nov  1 12:06:10 2021.
