 Gaussian 16, Revision C.01,
 Gaussian 16:  ES64L-G16RevC.01  3-Jul-2019

 -----------------
 # mp2/aug-cc-pvdz
 -----------------

 --------------
 pgT2_TT_55.pdb
 --------------
 Symbolic Z-matrix:
 Charge =  0 Multiplicity = 1

                         Standard orientation:
 ---------------------------------------------------------------------
 Center     Atomic      Atomic             Coordinates (Angstroms)
 Number     Number       Type             X           Y           Z
 ---------------------------------------------------------------------
      1          6           0        3.819086    0.337466    0.371620
      2          6           0        2.458971    0.766983    0.561887
      3          6           0        1.559274   -0.082045   -0.010037
      4          6           0        3.929461   -0.811262   -0.310467
      5         16           0        2.369697   -1.410557   -0.772186
      6          1           0        4.829616   -1.330675   -0.581080
      7          6           0        0.099257    0.017779    0.009580
      8         16           0       -0.690658    1.478776   -0.568021
      9          6           0       -2.250716    0.788035   -0.249907
     10          6           0       -2.140784   -0.482860    0.237781
     11          6           0       -0.790800   -0.933009    0.387472
     12          1           0       -0.490858   -1.903701    0.775791
     13         16           0       -3.700846   -1.173619    0.565895
     14          6           0       -4.480773    0.287323    0.018298
     15          6           0       -3.610708    1.238146   -0.379602
     16          1           0       -5.550778    0.347221    0.017993
     17          1           0       -3.900654    2.208821   -0.757917
     18          1           0        2.168675    1.655953    1.103423
     19          8           0        4.888838    1.016695    0.843295
     20          1           0        4.628597    1.815891    1.264676
 ---------------------------------------------------------------------

 SCF Done:  E(RHF) =  -1649.64287813     A.U. after   17 cycles
 E2 =    -0.1968183074D+01 EUMP2 =    -0.16516110612015D+04

 The electronic state is 1-A.
 Alpha  occ. eigenvalues --  -91.99663 -91.99406 -91.98976 -20.60610 -11.31312
 Alpha  occ. eigenvalues --  -11.29510 -11.29431 -11.28118 -11.27795 -11.27638
 Alpha  occ. eigenvalues --  -11.26442 -11.26228 -11.25543 -11.25515  -8.99819
 Alpha  occ. eigenvalues --   -8.99589  -8.99172  -6.67982  -6.67902  -6.67755
 Alpha  occ. eigenvalues --   -6.67692  -6.67676  -6.67469  -6.67340  -6.67250
 Alpha  occ. eigenvalues --   -6.67050  -1.42571  -1.22221  -1.18643  -1.13237
 Alpha  occ. eigenvalues --   -1.03105  -1.02829  -0.99042  -0.96012  -0.95110
 Alpha  occ. eigenvalues --   -0.84362  -0.78601  -0.77927  -0.74916  -0.72793
 Alpha  occ. eigenvalues --   -0.71801  -0.67355  -0.66205  -0.61153  -0.60629
 Alpha  occ. eigenvalues --   -0.58558  -0.57429  -0.56791  -0.54735  -0.53978
 Alpha  occ. eigenvalues --   -0.52861  -0.51158  -0.49840  -0.48299  -0.46836
 Alpha  occ. eigenvalues --   -0.46698  -0.39396  -0.35389  -0.33205  -0.32607
 Alpha  occ. eigenvalues --   -0.29558
 Alpha virt. eigenvalues --    0.03131   0.03377   0.04390   0.04731   0.04889
 Alpha virt. eigenvalues --    0.06405   0.06785   0.08219   0.08306   0.08983
 Alpha virt. eigenvalues --    0.09674   0.10270   0.10500   0.10825   0.11524

 Mulliken charges:
               1
     1  C    0.526009
     2  C    0.180410
     3  C    0.483411
     4  C    0.096319
     5  S    0.437404
     6  H   -0.355270
     7  C    0.391272
     8  S    0.411348
     9  C   -0.751272
    10  C   -0.179848
    11  C    0.112411
    12  H   -0.438321
    13  S    0.618214
    14  C   -0.067878
    15  C    0.514537
    16  H   -0.384257
    17  H   -0.316911
    18  H   -0.562742
    19  O   -0.846090
    20  H    0.131254
 Sum of Mulliken charges =  -0.00000

 Dipole moment (field-independent basis, Debye):
    X=             -1.1097    Y=              1.5864    Z=              0.8731  Tot=              2.1237
 Quadrupole moment (field-independent basis, Debye-Ang):
   XX=            -96.4561   YY=            -96.3165   ZZ=           -106.7713
   XY=             -0.5801   XZ=              3.1778   YZ=              1.8151

 Normal termination of Gaussian 16 at Mon Nov  1 12:17:20 2021.
