 Gaussian 16, Revision C.01,
 Gaussian 16:  ES64L-G16RevC.01  3-Jul-2019

 -----------------
 # mp2/aug-cc-pvdz
 -----------------

 ----------------
 pgT2_TT_-140.pdb
 ----------------
 Symbolic Z-matrix:
 Charge =  0 Multiplicity = 1

                         Standard orientation:
 ---------------------------------------------------------------------
 Center     Atomic      Atomic             Coordinates (Angstroms)
 Number     Number       Type             X           Y           Z
 ---------------------------------------------------------------------
      1          6           0       -3.759606    0.728664   -0.191186
      2          6           0       -2.369708    1.009247   -0.381073
      3          6           0       -1.569344   -0.000650    0.018458
      4          6           0       -3.989166   -0.491659    0.338259
      5         16           0       -2.498863   -1.331265    0.637861
      6          1           0       -4.939003   -0.942103    0.568063
      7          6           0       -0.099334   -0.030112   -0.011570
      8         16           0        0.771179   -1.479587   -0.482241
      9          6           0        2.290896   -0.679150   -0.251891
     10          6           0        2.110436    0.620608    0.138704
     11          6           0        0.730306    0.990047    0.288887
     12          1           0        0.389963    1.959770    0.629333
     13         16           0        3.630153    1.421040    0.379054
     14          6           0        4.490665   -0.028443   -0.081616
     15          6           0        3.671030   -1.058594   -0.392078
     16          1           0        5.560665   -0.028057   -0.091627
     17          1           0        4.011373   -2.028335   -0.692524
     18          1           0       -2.000038    1.919584   -0.830661
     19          8           0       -4.759913    1.578453   -0.510788
     20          1           0       -4.420199    2.368753   -0.900431
 ---------------------------------------------------------------------

 SCF Done:  E(RHF) =  -1649.64257981     A.U. after   17 cycles
 E2 =    -0.1968346215D+01 EUMP2 =    -0.16516109260288D+04

 The electronic state is 1-A.
 Alpha  occ. eigenvalues --  -91.99527 -91.99477 -91.98933 -20.60803 -11.31356
 Alpha  occ. eigenvalues --  -11.29520 -11.29442 -11.28183 -11.27826 -11.27685
 Alpha  occ. eigenvalues --  -11.26381 -11.26204 -11.25629 -11.25351  -8.99710
 Alpha  occ. eigenvalues --   -8.99654  -8.99129  -6.67875  -6.67821  -6.67795
 Alpha  occ. eigenvalues --   -6.67742  -6.67583  -6.67536  -6.67298  -6.67207
 Alpha  occ. eigenvalues --   -6.67007  -1.42661  -1.22229  -1.18720  -1.13262
 Alpha  occ. eigenvalues --   -1.03289  -1.02581  -0.99171  -0.96213  -0.94951
 Alpha  occ. eigenvalues --   -0.84248  -0.78787  -0.77838  -0.74721  -0.73050
 Alpha  occ. eigenvalues --   -0.72107  -0.67719  -0.66290  -0.61247  -0.60732
 Alpha  occ. eigenvalues --   -0.58189  -0.57459  -0.56375  -0.54894  -0.53960
 Alpha  occ. eigenvalues --   -0.52804  -0.51270  -0.50213  -0.48429  -0.46937
 Alpha  occ. eigenvalues --   -0.46583  -0.39482  -0.35784  -0.33286  -0.32643
 Alpha  occ. eigenvalues --   -0.29065
 Alpha virt. eigenvalues --    0.02899   0.03380   0.04500   0.04778   0.04876
 Alpha virt. eigenvalues --    0.05815   0.07069   0.08273   0.08302   0.09249
 Alpha virt. eigenvalues --    0.09575   0.10220   0.10730   0.10992   0.11586

 Mulliken charges:
               1
     1  C    0.426172
     2  C    0.287401
     3  C    0.470815
     4  C    0.064352
     5  S    0.485923
     6  H   -0.355015
     7  C    0.222266
     8  S    0.436785
     9  C   -0.782780
    10  C   -0.125426
    11  C    0.191682
    12  H   -0.442496
    13  S    0.602687
    14  C   -0.054711
    15  C    0.551840
    16  H   -0.390246
    17  H   -0.332412
    18  H   -0.546461
    19  O   -0.845390
    20  H    0.135016
 Sum of Mulliken charges =  -0.00000

 Dipole moment (field-independent basis, Debye):
    X=              1.2591    Y=              1.5113    Z=             -0.7745  Tot=              2.1141
 Quadrupole moment (field-independent basis, Debye-Ang):
   XX=            -96.6327   YY=            -95.0195   ZZ=           -108.0181
   XY=             -6.9442   XZ=              0.1927   YZ=             -1.7452

 Normal termination of Gaussian 16 at Mon Nov  1 12:00:32 2021.
