 Gaussian 16, Revision C.01,
 Gaussian 16:  ES64L-G16RevC.01  3-Jul-2019

 -----------------
 # mp2/aug-cc-pvdz
 -----------------

 ---------------
 pgT2_TT_135.pdb
 ---------------
 Symbolic Z-matrix:
 Charge =  0 Multiplicity = 1

                         Standard orientation:
 ---------------------------------------------------------------------
 Center     Atomic      Atomic             Coordinates (Angstroms)
 Number     Number       Type             X           Y           Z
 ---------------------------------------------------------------------
      1          6           0        3.759801    0.709995   -0.207412
      2          6           0        2.370013    0.990623   -0.417980
      3          6           0        1.569411    0.000704    0.031126
      4          6           0        3.989062   -0.480373    0.362119
      5         16           0        2.498580   -1.299977    0.700958
      6          1           0        4.938768   -0.920854    0.612385
      7          6           0        0.099415   -0.028726    0.000364
      8         16           0       -0.770864   -1.468141   -0.520787
      9          6           0       -2.290684   -0.667686   -0.281165
     10          6           0       -2.110424    0.612030    0.159556
     11          6           0       -0.740371    0.981428    0.330435
     12          1           0       -0.400201    1.931118    0.701075
     13         16           0       -3.630253    1.402481    0.409173
     14          6           0       -4.490533   -0.026943   -0.101968
     15          6           0       -3.660750   -1.047094   -0.432048
     16          1           0       -5.560523   -0.026529   -0.122512
     17          1           0       -4.010940   -2.006795   -0.772699
     18          1           0        2.000597    1.890999   -0.897725
     19          8           0        4.760305    1.549799   -0.576490
     20          1           0        4.420810    2.320134   -0.996284
 ---------------------------------------------------------------------

 SCF Done:  E(RHF) =  -1649.64256998     A.U. after   17 cycles
 E2 =    -0.1967798221D+01 EUMP2 =    -0.16516103681959D+04

 The electronic state is 1-A.
 Alpha  occ. eigenvalues --  -91.99519 -91.99439 -91.98915 -20.60609 -11.31252
 Alpha  occ. eigenvalues --  -11.29589 -11.29454 -11.28184 -11.27743 -11.27594
 Alpha  occ. eigenvalues --  -11.26353 -11.26186 -11.25587 -11.25450  -8.99686
 Alpha  occ. eigenvalues --   -8.99631  -8.99130  -6.67850  -6.67798  -6.67770
 Alpha  occ. eigenvalues --   -6.67721  -6.67559  -6.67515  -6.67299  -6.67208
 Alpha  occ. eigenvalues --   -6.67006  -1.42355  -1.22337  -1.18899  -1.13261
 Alpha  occ. eigenvalues --   -1.03367  -1.02748  -0.99122  -0.96230  -0.95014
 Alpha  occ. eigenvalues --   -0.84324  -0.78723  -0.77896  -0.74698  -0.72991
 Alpha  occ. eigenvalues --   -0.72179  -0.67664  -0.66216  -0.61188  -0.60588
 Alpha  occ. eigenvalues --   -0.58356  -0.57543  -0.56536  -0.55038  -0.54010
 Alpha  occ. eigenvalues --   -0.52835  -0.51207  -0.50058  -0.48444  -0.46894
 Alpha  occ. eigenvalues --   -0.46560  -0.39493  -0.35712  -0.33313  -0.32659
 Alpha  occ. eigenvalues --   -0.29260
 Alpha virt. eigenvalues --    0.02937   0.03374   0.04498   0.04777   0.04851
 Alpha virt. eigenvalues --    0.05876   0.07100   0.08255   0.08273   0.09265
 Alpha virt. eigenvalues --    0.09487   0.10279   0.10657   0.10937   0.11532

 Mulliken charges:
               1
     1  C    0.477964
     2  C    0.197429
     3  C    0.502513
     4  C    0.059252
     5  S    0.485950
     6  H   -0.347315
     7  C    0.242444
     8  S    0.416466
     9  C   -0.754605
    10  C   -0.125299
    11  C    0.190098
    12  H   -0.448583
    13  S    0.618689
    14  C   -0.072977
    15  C    0.521972
    16  H   -0.391881
    17  H   -0.321660
    18  H   -0.532869
    19  O   -0.847203
    20  H    0.129612
 Sum of Mulliken charges =  -0.00000

 Dipole moment (field-independent basis, Debye):
    X=             -1.2767    Y=              1.4553    Z=             -0.8159  Tot=              2.1009
 Quadrupole moment (field-independent basis, Debye-Ang):
   XX=            -96.7638   YY=            -95.6209   ZZ=           -107.4904
   XY=              6.5441   XZ=              0.0883   YZ=             -1.7608

 Normal termination of Gaussian 16 at Mon Nov  1 12:22:31 2021.
