 Gaussian 16, Revision C.01,
 Gaussian 16:  ES64L-G16RevC.01  3-Jul-2019

 -----------------
 # mp2/aug-cc-pvdz
 -----------------

 ----------------
 pgT2_TT_-135.pdb
 ----------------
 Symbolic Z-matrix:
 Charge =  0 Multiplicity = 1

                         Standard orientation:
 ---------------------------------------------------------------------
 Center     Atomic      Atomic             Coordinates (Angstroms)
 Number     Number       Type             X           Y           Z
 ---------------------------------------------------------------------
      1          6           0       -3.759712    0.710429   -0.219042
      2          6           0       -2.369833    0.991440   -0.418466
      3          6           0       -1.569424    0.000648    0.029058
      4          6           0       -3.989217   -0.481093    0.368072
      5         16           0       -2.498881   -1.301357    0.705958
      6          1           0       -4.939032   -0.922036    0.607072
      7          6           0       -0.099415   -0.028723   -0.001128
      8         16           0        0.771088   -1.467123   -0.524704
      9          6           0        2.290804   -0.667136   -0.282871
     10          6           0        2.110355    0.611719    0.160262
     11          6           0        0.740229    0.980786    0.331269
     12          1           0        0.399899    1.929753    0.703610
     13         16           0        3.630076    1.401681    0.412071
     14          6           0        4.490576   -0.026746   -0.101480
     15          6           0        3.660936   -1.046252   -0.433902
     16          1           0        5.560575   -0.026293   -0.121562
     17          1           0        4.011272   -2.005288   -0.776268
     18          1           0       -2.000210    1.892747   -0.896299
     19          8           0       -4.760057    1.550926   -0.576917
     20          1           0       -4.420379    2.322052   -0.985064
 ---------------------------------------------------------------------

 SCF Done:  E(RHF) =  -1649.64264139     A.U. after   17 cycles
 E2 =    -0.1968197976D+01 EUMP2 =    -0.16516108393614D+04

 The electronic state is 1-A.
 Alpha  occ. eigenvalues --  -91.99516 -91.99434 -91.98960 -20.60662 -11.31354
 Alpha  occ. eigenvalues --  -11.29589 -11.29478 -11.28178 -11.27736 -11.27589
 Alpha  occ. eigenvalues --  -11.26342 -11.26181 -11.25646 -11.25469  -8.99682
 Alpha  occ. eigenvalues --   -8.99626  -8.99158  -6.67845  -6.67793  -6.67766
 Alpha  occ. eigenvalues --   -6.67716  -6.67555  -6.67510  -6.67327  -6.67237
 Alpha  occ. eigenvalues --   -6.67036  -1.42637  -1.22325  -1.18789  -1.13233
 Alpha  occ. eigenvalues --   -1.03334  -1.02682  -0.99166  -0.96175  -0.94991
 Alpha  occ. eigenvalues --   -0.84334  -0.78824  -0.77909  -0.74745  -0.73012
 Alpha  occ. eigenvalues --   -0.72160  -0.67668  -0.66255  -0.61200  -0.60653
 Alpha  occ. eigenvalues --   -0.58352  -0.57544  -0.56495  -0.55070  -0.54017
 Alpha  occ. eigenvalues --   -0.52822  -0.51198  -0.50085  -0.48433  -0.46875
 Alpha  occ. eigenvalues --   -0.46559  -0.39485  -0.35730  -0.33226  -0.32652
 Alpha  occ. eigenvalues --   -0.29195
 Alpha virt. eigenvalues --    0.02931   0.03377   0.04500   0.04780   0.04856
 Alpha virt. eigenvalues --    0.05858   0.07083   0.08256   0.08275   0.09247
 Alpha virt. eigenvalues --    0.09485   0.10284   0.10683   0.10918   0.11537

 Mulliken charges:
               1
     1  C    0.451584
     2  C    0.215976
     3  C    0.497663
     4  C    0.071943
     5  S    0.485636
     6  H   -0.353426
     7  C    0.241334
     8  S    0.417361
     9  C   -0.744610
    10  C   -0.129425
    11  C    0.193478
    12  H   -0.448302
    13  S    0.618415
    14  C   -0.071652
    15  C    0.513872
    16  H   -0.391824
    17  H   -0.321364
    18  H   -0.533061
    19  O   -0.837464
    20  H    0.123868
 Sum of Mulliken charges =  -0.00000

 Dipole moment (field-independent basis, Debye):
    X=              1.2632    Y=              1.4730    Z=             -0.8171  Tot=              2.1055
 Quadrupole moment (field-independent basis, Debye-Ang):
   XX=            -96.7234   YY=            -95.5734   ZZ=           -107.5463
   XY=             -6.6352   XZ=             -0.0737   YZ=             -1.7347

 Normal termination of Gaussian 16 at Mon Nov  1 12:00:58 2021.
