 Gaussian 16, Revision C.01,
 Gaussian 16:  ES64L-G16RevC.01  3-Jul-2019

 -----------------
 # mp2/aug-cc-pvdz
 -----------------

 ---------------
 pgT2_TT_130.pdb
 ---------------
 Symbolic Z-matrix:
 Charge =  0 Multiplicity = 1

                         Standard orientation:
 ---------------------------------------------------------------------
 Center     Atomic      Atomic             Coordinates (Angstroms)
 Number     Number       Type             X           Y           Z
 ---------------------------------------------------------------------
      1          6           0        3.759052    0.701681   -0.239918
      2          6           0        2.368908    0.970938   -0.449918
      3          6           0        1.569426    0.000511    0.040082
      4          6           0        3.989677   -0.468196    0.390082
      5         16           0        2.500105   -1.268992    0.770082
      6          1           0        4.939907   -0.897688    0.660082
      7          6           0        0.099442   -0.030275    0.010082
      8         16           0       -0.759799   -1.450734   -0.559918
      9          6           0       -2.290221   -0.661552   -0.309918
     10          6           0       -2.110894    0.598544    0.180082
     11          6           0       -0.741092    0.969276    0.370082
     12          1           0       -0.401594    1.909458    0.770082
     13         16           0       -3.641316    1.387727    0.440082
     14          6           0       -4.490557   -0.032727   -0.119918
     15          6           0       -3.660017   -1.042284   -0.479918
     16          1           0       -5.560557   -0.033299   -0.149918
     17          1           0       -3.999510   -1.992465   -0.849918
     18          1           0        1.988443    1.840735   -0.969918
     19          8           0        4.758614    1.522215   -0.639918
     20          1           0        4.418213    2.272033   -1.089918
 ---------------------------------------------------------------------

 SCF Done:  E(RHF) =  -1649.64264149     A.U. after   17 cycles
 E2 =    -0.1968231550D+01 EUMP2 =    -0.16516108730374D+04

 The electronic state is 1-A.
 Alpha  occ. eigenvalues --  -91.99505 -91.99458 -91.98925 -20.60681 -11.31356
 Alpha  occ. eigenvalues --  -11.29530 -11.29393 -11.28227 -11.27798 -11.27654
 Alpha  occ. eigenvalues --  -11.26376 -11.26212 -11.25677 -11.25420  -8.99670
 Alpha  occ. eigenvalues --   -8.99622  -8.99129  -6.67833  -6.67788  -6.67753
 Alpha  occ. eigenvalues --   -6.67710  -6.67543  -6.67505  -6.67297  -6.67208
 Alpha  occ. eigenvalues --   -6.67007  -1.42629  -1.22222  -1.18788  -1.13193
 Alpha  occ. eigenvalues --   -1.03195  -1.02625  -0.99163  -0.96125  -0.95021
 Alpha  occ. eigenvalues --   -0.84261  -0.78789  -0.77908  -0.74676  -0.72949
 Alpha  occ. eigenvalues --   -0.72189  -0.67691  -0.66231  -0.61185  -0.60662
 Alpha  occ. eigenvalues --   -0.58281  -0.57497  -0.56475  -0.55063  -0.54055
 Alpha  occ. eigenvalues --   -0.52746  -0.51131  -0.50022  -0.48452  -0.46862
 Alpha  occ. eigenvalues --   -0.46510  -0.39336  -0.35636  -0.33141  -0.32705
 Alpha  occ. eigenvalues --   -0.29379
 Alpha virt. eigenvalues --    0.02947   0.03378   0.04510   0.04768   0.04825
 Alpha virt. eigenvalues --    0.05917   0.07204   0.08229   0.08262   0.09233
 Alpha virt. eigenvalues --    0.09441   0.10286   0.10634   0.10892   0.11471

 Mulliken charges:
               1
     1  C    0.485653
     2  C    0.203507
     3  C    0.494227
     4  C    0.048611
     5  S    0.478396
     6  H   -0.345195
     7  C    0.300458
     8  S    0.405125
     9  C   -0.769979
    10  C   -0.114219
    11  C    0.118539
    12  H   -0.435967
    13  S    0.607960
    14  C   -0.044956
    15  C    0.531449
    16  H   -0.392027
    17  H   -0.321766
    18  H   -0.536734
    19  O   -0.840026
    20  H    0.126943
 Sum of Mulliken charges =  -0.00000

 Dipole moment (field-independent basis, Debye):
    X=             -1.2467    Y=              1.4318    Z=             -0.9056  Tot=              2.1034
 Quadrupole moment (field-independent basis, Debye-Ang):
   XX=            -96.8082   YY=            -96.1070   ZZ=           -106.9714
   XY=              6.5520   XZ=              0.1650   YZ=             -1.8170

 Normal termination of Gaussian 16 at Mon Nov  1 12:22:30 2021.
