 Gaussian 16, Revision C.01,
 Gaussian 16:  ES64L-G16RevC.01  3-Jul-2019

 -----------------
 # mp2/aug-cc-pvdz
 -----------------

 ---------------
 pgT2_TT_-60.pdb
 ---------------
 Symbolic Z-matrix:
 Charge =  0 Multiplicity = 1

                         Standard orientation:
 ---------------------------------------------------------------------
 Center     Atomic      Atomic             Coordinates (Angstroms)
 Number     Number       Type             X           Y           Z
 ---------------------------------------------------------------------
      1          6           0       -3.820355    0.328580    0.398862
      2          6           0       -2.460527    0.738885    0.609378
      3          6           0       -1.570140   -0.070547   -0.010809
      4          6           0       -3.929846   -0.791088   -0.351708
      5         16           0       -2.369561   -1.360382   -0.841623
      6          1           0       -4.829628   -1.291216   -0.642161
      7          6           0       -0.100172    0.019883    0.009577
      8         16           0        0.699539    1.460419   -0.599537
      9          6           0        2.259663    0.780721   -0.259505
     10          6           0        2.139919   -0.479568    0.259855
     11          6           0        0.780014   -0.920053    0.419324
     12          1           0        0.490203   -1.870339    0.828795
     13         16           0        3.700047   -1.169266    0.599882
     14          6           0        4.479747    0.281249    0.020769
     15          6           0        3.609566    1.221198   -0.408977
     16          1           0        5.549729    0.341569    0.021047
     17          1           0        3.909369    2.181477   -0.798440
     18          1           0       -2.170922    1.598685    1.199863
     19          8           0       -4.890668    0.968007    0.918924
     20          1           0       -4.631008    1.747861    1.379364
 ---------------------------------------------------------------------

 SCF Done:  E(RHF) =  -1649.64271425     A.U. after   17 cycles
 E2 =    -0.1968102333D+01 EUMP2 =    -0.16516108165818D+04

 The electronic state is 1-A.
 Alpha  occ. eigenvalues --  -91.99530 -91.99445 -91.98989 -20.60719 -11.31413
 Alpha  occ. eigenvalues --  -11.29456 -11.29359 -11.28115 -11.27770 -11.27624
 Alpha  occ. eigenvalues --  -11.26312 -11.26116 -11.25594 -11.25455  -8.99696
 Alpha  occ. eigenvalues --   -8.99613  -8.99188  -6.67860  -6.67779  -6.67778
 Alpha  occ. eigenvalues --   -6.67700  -6.67569  -6.67495  -6.67355  -6.67265
 Alpha  occ. eigenvalues --   -6.67066  -1.42638  -1.22170  -1.18695  -1.13213
 Alpha  occ. eigenvalues --   -1.03073  -1.02628  -0.99184  -0.96005  -0.95069
 Alpha  occ. eigenvalues --   -0.84177  -0.78672  -0.77981  -0.74964  -0.72752
 Alpha  occ. eigenvalues --   -0.71927  -0.67507  -0.66226  -0.61121  -0.60657
 Alpha  occ. eigenvalues --   -0.58569  -0.57494  -0.56677  -0.54862  -0.54142
 Alpha  occ. eigenvalues --   -0.52626  -0.51085  -0.49796  -0.48433  -0.46800
 Alpha  occ. eigenvalues --   -0.46606  -0.39379  -0.35348  -0.33028  -0.32482
 Alpha  occ. eigenvalues --   -0.29765
 Alpha virt. eigenvalues --    0.03111   0.03381   0.04403   0.04741   0.04865
 Alpha virt. eigenvalues --    0.06400   0.07020   0.08206   0.08312   0.08905
 Alpha virt. eigenvalues --    0.09702   0.10160   0.10468   0.10860   0.11409

 Mulliken charges:
               1
     1  C    0.493455
     2  C    0.231801
     3  C    0.435249
     4  C    0.119569
     5  S    0.427248
     6  H   -0.362518
     7  C    0.378428
     8  S    0.409540
     9  C   -0.714242
    10  C   -0.290434
    11  C    0.190363
    12  H   -0.466121
    13  S    0.621028
    14  C   -0.066604
    15  C    0.557562
    16  H   -0.388021
    17  H   -0.317798
    18  H   -0.544602
    19  O   -0.847341
    20  H    0.133439
 Sum of Mulliken charges =  -0.00000

 Dipole moment (field-independent basis, Debye):
    X=              1.0753    Y=              1.5394    Z=              0.9814  Tot=              2.1188
 Quadrupole moment (field-independent basis, Debye-Ang):
   XX=            -96.4178   YY=            -96.8719   ZZ=           -106.1157
   XY=              0.5326   XZ=             -3.4714   YZ=              1.9957

 Normal termination of Gaussian 16 at Mon Nov  1 12:07:01 2021.
