 Gaussian 16, Revision C.01,
 Gaussian 16:  ES64L-G16RevC.01  3-Jul-2019

 -----------------
 # mp2/aug-cc-pvdz
 -----------------

 --------------
 pgT2_TT_70.pdb
 --------------
 Symbolic Z-matrix:
 Charge =  0 Multiplicity = 1

                         Standard orientation:
 ---------------------------------------------------------------------
 Center     Atomic      Atomic             Coordinates (Angstroms)
 Number     Number       Type             X           Y           Z
 ---------------------------------------------------------------------
      1          6           0        3.820455    0.280878    0.467539
      2          6           0        2.450523    0.650709    0.728136
      3          6           0        1.570262   -0.069889   -0.000959
      4          6           0        3.930158   -0.719587   -0.431979
      5         16           0        2.379935   -1.220256   -1.010803
      6          1           0        4.840051   -1.169577   -0.792264
      7          6           0        0.100253    0.019788    0.019849
      8         16           0       -0.710454    1.439244   -0.640453
      9          6           0       -2.260090    0.759088   -0.279179
     10          6           0       -2.129476   -0.480572    0.291421
     11          6           0       -0.779279   -0.910172    0.460868
     12          1           0       -0.468815   -1.849867    0.891200
     13         16           0       -3.689111   -1.160730    0.652700
     14          6           0       -4.479801    0.258747    0.022387
     15          6           0       -3.620280    1.188692   -0.438621
     16          1           0       -5.559812    0.308502    0.022989
     17          1           0       -3.930739    2.128392   -0.858953
     18          1           0        2.160755    1.421024    1.427885
     19          8           0        4.880681    0.851452    1.076611
     20          1           0        4.610848    1.551695    1.636387
 ---------------------------------------------------------------------

 SCF Done:  E(RHF) =  -1649.64197539     A.U. after   17 cycles
 E2 =    -0.1967786492D+01 EUMP2 =    -0.16516097618801D+04

 The electronic state is 1-A.
 Alpha  occ. eigenvalues --  -91.99519 -91.99336 -91.98940 -20.60717 -11.31390
 Alpha  occ. eigenvalues --  -11.29391 -11.29258 -11.28151 -11.27767 -11.27598
 Alpha  occ. eigenvalues --  -11.26327 -11.26078 -11.25606 -11.25493  -8.99673
 Alpha  occ. eigenvalues --   -8.99518  -8.99140  -6.67836  -6.67755  -6.67684
 Alpha  occ. eigenvalues --   -6.67606  -6.67547  -6.67399  -6.67308  -6.67216
 Alpha  occ. eigenvalues --   -6.67016  -1.42866  -1.22147  -1.18650  -1.13171
 Alpha  occ. eigenvalues --   -1.03086  -1.02682  -0.99092  -0.96059  -0.94944
 Alpha  occ. eigenvalues --   -0.84132  -0.78672  -0.77792  -0.74961  -0.72739
 Alpha  occ. eigenvalues --   -0.72063  -0.67452  -0.66175  -0.61133  -0.60707
 Alpha  occ. eigenvalues --   -0.58451  -0.57625  -0.56753  -0.54734  -0.54098
 Alpha  occ. eigenvalues --   -0.52542  -0.51040  -0.49556  -0.48604  -0.46697
 Alpha  occ. eigenvalues --   -0.46516  -0.39369  -0.35187  -0.32838  -0.32258
 Alpha  occ. eigenvalues --   -0.30232
 Alpha virt. eigenvalues --    0.03096   0.03382   0.04434   0.04750   0.04816
 Alpha virt. eigenvalues --    0.06344   0.07333   0.08212   0.08309   0.08781
 Alpha virt. eigenvalues --    0.09718   0.09888   0.10437   0.10899   0.11354

 Mulliken charges:
               1
     1  C    0.521466
     2  C    0.223174
     3  C    0.412672
     4  C    0.101767
     5  S    0.416543
     6  H   -0.349162
     7  C    0.378631
     8  S    0.408453
     9  C   -0.752134
    10  C   -0.272773
    11  C    0.137674
    12  H   -0.436758
    13  S    0.641300
    14  C   -0.111806
    15  C    0.623687
    16  H   -0.369045
    17  H   -0.325282
    18  H   -0.537328
    19  O   -0.836064
    20  H    0.124984
 Sum of Mulliken charges =  -0.00000

 Dipole moment (field-independent basis, Debye):
    X=             -1.0638    Y=              1.4085    Z=              1.1522  Tot=              2.1079
 Quadrupole moment (field-independent basis, Debye-Ang):
   XX=            -96.4642   YY=            -98.4935   ZZ=           -104.4799
   XY=             -0.8981   XZ=              4.0897   YZ=              2.2105

 Normal termination of Gaussian 16 at Mon Nov  1 12:19:21 2021.
