 Gaussian 16, Revision C.01,
 Gaussian 16:  ES64L-G16RevC.01  3-Jul-2019

 -----------------
 # mp2/aug-cc-pvdz
 -----------------

 --------------
 pgT2_TT_80.pdb
 --------------
 Symbolic Z-matrix:
 Charge =  0 Multiplicity = 1

                         Standard orientation:
 ---------------------------------------------------------------------
 Center     Atomic      Atomic             Coordinates (Angstroms)
 Number     Number       Type             X           Y           Z
 ---------------------------------------------------------------------
      1          6           0        3.810348    0.181738    0.558336
      2          6           0        2.440401    0.472768    0.877626
      3          6           0        1.570246   -0.070234   -0.010394
      4          6           0        3.940158   -0.581971   -0.549137
      5         16           0        2.400034   -0.954358   -1.247599
      6          1           0        4.860084   -0.933416   -0.988139
      7          6           0        0.100249    0.019823    0.019587
      8         16           0       -0.719907    1.457815   -0.575075
      9          6           0       -2.269823    0.758879   -0.242435
     10          6           0       -2.129686   -0.499368    0.281754
     11          6           0       -0.769646   -0.928858    0.422932
     12          1           0       -0.459545   -1.887571    0.806086
     13         16           0       -3.679601   -1.208304    0.614427
     14          6           0       -4.479751    0.229789    0.049762
     15          6           0       -3.629860    1.188402   -0.373614
     16          1           0       -5.559751    0.279791    0.059801
     17          1           0       -3.939964    2.147081   -0.766767
     18          1           0        2.130546    1.055602    1.725739
     19          8           0        4.860475    0.604211    1.286724
     20          1           0        4.580595    1.156577    1.994932
 ---------------------------------------------------------------------

 SCF Done:  E(RHF) =  -1649.64138360     A.U. after   17 cycles
 E2 =    -0.1967999240D+01 EUMP2 =    -0.16516093828369D+04

 The electronic state is 1-A.
 Alpha  occ. eigenvalues --  -91.99396 -91.99384 -91.98973 -20.60762 -11.31310
 Alpha  occ. eigenvalues --  -11.29286 -11.29205 -11.28145 -11.27709 -11.27542
 Alpha  occ. eigenvalues --  -11.26281 -11.26116 -11.25608 -11.25447  -8.99573
 Alpha  occ. eigenvalues --   -8.99557  -8.99155  -6.67739  -6.67720  -6.67661
 Alpha  occ. eigenvalues --   -6.67640  -6.67455  -6.67430  -6.67321  -6.67231
 Alpha  occ. eigenvalues --   -6.67033  -1.42916  -1.22149  -1.18557  -1.13217
 Alpha  occ. eigenvalues --   -1.03066  -1.02512  -0.99096  -0.96064  -0.94941
 Alpha  occ. eigenvalues --   -0.84113  -0.78635  -0.77756  -0.74855  -0.72675
 Alpha  occ. eigenvalues --   -0.72212  -0.67433  -0.66137  -0.61079  -0.60772
 Alpha  occ. eigenvalues --   -0.58374  -0.57584  -0.56664  -0.54796  -0.54143
 Alpha  occ. eigenvalues --   -0.52508  -0.50970  -0.49414  -0.48767  -0.46660
 Alpha  occ. eigenvalues --   -0.46491  -0.39273  -0.34967  -0.32655  -0.31978
 Alpha  occ. eigenvalues --   -0.30749
 Alpha virt. eigenvalues --    0.03069   0.03387   0.04469   0.04753   0.04766
 Alpha virt. eigenvalues --    0.06279   0.07604   0.08265   0.08349   0.08715
 Alpha virt. eigenvalues --    0.09475   0.09859   0.10353   0.10864   0.11401

 Mulliken charges:
               1
     1  C    0.565522
     2  C    0.244992
     3  C    0.344404
     4  C    0.072912
     5  S    0.405251
     6  H   -0.347142
     7  C    0.408625
     8  S    0.422561
     9  C   -0.755754
    10  C   -0.300583
    11  C    0.116222
    12  H   -0.432535
    13  S    0.651277
    14  C   -0.081079
    15  C    0.617684
    16  H   -0.367643
    17  H   -0.314458
    18  H   -0.541712
    19  O   -0.838834
    20  H    0.130290
 Sum of Mulliken charges =  -0.00000

 Dipole moment (field-independent basis, Debye):
    X=             -1.0725    Y=              1.0759    Z=              1.4557  Tot=              2.1040
 Quadrupole moment (field-independent basis, Debye-Ang):
   XX=            -96.4923   YY=           -100.5844   ZZ=           -102.2836
   XY=             -1.5630   XZ=              4.5941   YZ=              2.1917

 Normal termination of Gaussian 16 at Mon Nov  1 12:18:41 2021.
