 Gaussian 16, Revision C.01,
 Gaussian 16:  ES64L-G16RevC.01  3-Jul-2019

 -----------------
 # mp2/aug-cc-pvdz
 -----------------

 ---------------
 pgT2_TT_-20.pdb
 ---------------
 Symbolic Z-matrix:
 Charge =  0 Multiplicity = 1

                         Standard orientation:
 ---------------------------------------------------------------------
 Center     Atomic      Atomic             Coordinates (Angstroms)
 Number     Number       Type             X           Y           Z
 ---------------------------------------------------------------------
      1          6           0       -3.820559    0.411314    0.149754
      2          6           0       -2.470450    0.870994    0.209754
      3          6           0       -1.560682   -0.109221   -0.000246
      4          6           0       -3.920871   -0.908663   -0.110246
      5         16           0       -2.351041   -1.629034   -0.300246
      6          1           0       -4.821010   -1.498450   -0.200246
      7          6           0       -0.100656    0.000434   -0.010246
      8         16           0        0.669713    1.560251   -0.250246
      9          6           0        2.239543    0.839880   -0.100246
     10          6           0        2.149226   -0.500099    0.099754
     11          6           0        0.809110   -0.989782    0.159754
     12          1           0        0.538866   -2.019718    0.329754
     13         16           0        3.719056   -1.220470    0.239754
     14          6           0        4.469425    0.339352    0.009754
     15          6           0        3.589661    1.339561   -0.160246
     16          1           0        5.549441    0.409097    0.019754
     17          1           0        3.869905    2.369494   -0.310246
     18          1           0       -2.200206    1.900930    0.429754
     19          8           0       -4.900372    1.201569    0.339754
     20          1           0       -4.640161    2.091508    0.499754
 ---------------------------------------------------------------------

 SCF Done:  E(RHF) =  -1649.64367493     A.U. after   17 cycles
 E2 =    -0.1967483709D+01 EUMP2 =    -0.16516111586395D+04

 The electronic state is 1-A.
 Alpha  occ. eigenvalues --  -91.99581 -91.99405 -91.98958 -20.60760 -11.31381
 Alpha  occ. eigenvalues --  -11.29668 -11.29588 -11.28218 -11.27819 -11.27603
 Alpha  occ. eigenvalues --  -11.26332 -11.26242 -11.25721 -11.25409  -8.99788
 Alpha  occ. eigenvalues --   -8.99601  -8.99163  -6.67957  -6.67879  -6.67767
 Alpha  occ. eigenvalues --   -6.67688  -6.67665  -6.67480  -6.67336  -6.67245
 Alpha  occ. eigenvalues --   -6.67042  -1.42705  -1.22539  -1.18797  -1.13416
 Alpha  occ. eigenvalues --   -1.03203  -1.02977  -0.99390  -0.96064  -0.95094
 Alpha  occ. eigenvalues --   -0.84418  -0.78701  -0.78040  -0.75335  -0.72957
 Alpha  occ. eigenvalues --   -0.71495  -0.67598  -0.66302  -0.61134  -0.60752
 Alpha  occ. eigenvalues --   -0.58492  -0.57629  -0.56833  -0.54726  -0.53594
 Alpha  occ. eigenvalues --   -0.53174  -0.51863  -0.50390  -0.48057  -0.47066
 Alpha  occ. eigenvalues --   -0.46636  -0.39645  -0.36291  -0.33622  -0.32770
 Alpha  occ. eigenvalues --   -0.28443
 Alpha virt. eigenvalues --    0.03127   0.03341   0.04326   0.04715   0.04984
 Alpha virt. eigenvalues --    0.05544   0.06695   0.08300   0.08764   0.09385
 Alpha virt. eigenvalues --    0.09934   0.10564   0.10622   0.11026   0.11681

 Mulliken charges:
               1
     1  C    0.414297
     2  C    0.232112
     3  C    0.607741
     4  C    0.044989
     5  S    0.473976
     6  H   -0.378982
     7  C    0.264721
     8  S    0.480317
     9  C   -0.672503
    10  C   -0.117105
    11  C    0.336590
    12  H   -0.501860
    13  S    0.542861
    14  C   -0.175206
    15  C    0.431732
    16  H   -0.370443
    17  H   -0.323083
    18  H   -0.576764
    19  O   -0.845055
    20  H    0.131663
 Sum of Mulliken charges =  -0.00000

 Dipole moment (field-independent basis, Debye):
    X=              1.1932    Y=              1.8151    Z=              0.3781  Tot=              2.2048
 Quadrupole moment (field-independent basis, Debye-Ang):
   XX=            -96.2307   YY=            -93.2394   ZZ=           -109.9870
   XY=              0.3061   XZ=             -1.2621   YZ=              0.7929

 Normal termination of Gaussian 16 at Mon Nov  1 12:10:57 2021.
