 Gaussian 16, Revision C.01,
 Gaussian 16:  ES64L-G16RevC.01  3-Jul-2019

 -----------------
 # mp2/aug-cc-pvdz
 -----------------

 ---------------
 pgT2_TT_160.pdb
 ---------------
 Symbolic Z-matrix:
 Charge =  0 Multiplicity = 1

                         Standard orientation:
 ---------------------------------------------------------------------
 Center     Atomic      Atomic             Coordinates (Angstroms)
 Number     Number       Type             X           Y           Z
 ---------------------------------------------------------------------
      1          6           0        3.759954    0.760597   -0.089767
      2          6           0        2.369910    1.070117   -0.230385
      3          6           0        1.570084    0.000311   -0.028657
      4          6           0        3.990160   -0.528860    0.212402
      5         16           0        2.510305   -1.408887    0.353763
      6          1           0        4.940234   -1.008441    0.363271
      7          6           0        0.100089   -0.019982   -0.048730
      8         16           0       -0.779627   -1.530536   -0.286274
      9          6           0       -2.299784   -0.700555   -0.137768
     10          6           0       -2.110036    0.639827    0.070009
     11          6           0       -0.730110    1.030187    0.139458
     12          1           0       -0.390300    2.030563    0.327813
     13         16           0       -3.630194    1.469808    0.218514
     14          6           0       -4.489911   -0.030742   -0.019045
     15          6           0       -3.669712   -1.090880   -0.187217
     16          1           0       -5.559912   -0.030915   -0.009122
     17          1           0       -4.029522   -2.101209   -0.345557
     18          1           0        1.999755    2.049617   -0.492046
     19          8           0        4.759807    1.660505   -0.251197
     20          1           0        4.409674    2.510042   -0.492640
 ---------------------------------------------------------------------

 SCF Done:  E(RHF) =  -1649.64148810     A.U. after   17 cycles
 E2 =    -0.1969273745D+01 EUMP2 =    -0.16516107618472D+04

 The electronic state is 1-A.
 Alpha  occ. eigenvalues --  -91.99551 -91.99525 -91.98958 -20.60813 -11.31312
 Alpha  occ. eigenvalues --  -11.29745 -11.29581 -11.28124 -11.27915 -11.27752
 Alpha  occ. eigenvalues --  -11.26403 -11.26200 -11.25532 -11.25308  -8.99720
 Alpha  occ. eigenvalues --   -8.99696  -8.99189  -6.67886  -6.67862  -6.67806
 Alpha  occ. eigenvalues --   -6.67784  -6.67594  -6.67579  -6.67360  -6.67270
 Alpha  occ. eigenvalues --   -6.67067  -1.42358  -1.22256  -1.18915  -1.13297
 Alpha  occ. eigenvalues --   -1.03414  -1.02667  -0.99265  -0.96226  -0.94973
 Alpha  occ. eigenvalues --   -0.84355  -0.78768  -0.77817  -0.74715  -0.73143
 Alpha  occ. eigenvalues --   -0.72046  -0.67779  -0.66249  -0.61312  -0.60685
 Alpha  occ. eigenvalues --   -0.58296  -0.57453  -0.56345  -0.54982  -0.53517
 Alpha  occ. eigenvalues --   -0.53045  -0.51756  -0.50488  -0.48401  -0.46990
 Alpha  occ. eigenvalues --   -0.46432  -0.39789  -0.36092  -0.33599  -0.32636
 Alpha  occ. eigenvalues --   -0.28482
 Alpha virt. eigenvalues --    0.02837   0.03375   0.04459   0.04784   0.04970
 Alpha virt. eigenvalues --    0.05488   0.07034   0.08319   0.08449   0.09163
 Alpha virt. eigenvalues --    0.10024   0.10063   0.10779   0.11057   0.11785

 Mulliken charges:
               1
     1  C    0.368517
     2  C    0.416241
     3  C    0.374911
     4  C    0.062775
     5  S    0.533627
     6  H   -0.372877
     7  C   -0.012178
     8  S    0.464493
     9  C   -0.661775
    10  C   -0.125003
    11  C    0.559663
    12  H   -0.502651
    13  S    0.546733
    14  C   -0.114835
    15  C    0.449221
    16  H   -0.396771
    17  H   -0.310938
    18  H   -0.558521
    19  O   -0.862382
    20  H    0.141752
 Sum of Mulliken charges =  -0.00000

 Dipole moment (field-independent basis, Debye):
    X=             -1.3011    Y=              1.6060    Z=             -0.4027  Tot=              2.1058
 Quadrupole moment (field-independent basis, Debye-Ang):
   XX=            -96.6889   YY=            -93.3343   ZZ=           -109.7451
   XY=              7.0906   XZ=             -0.3112   YZ=             -1.3043

 Normal termination of Gaussian 16 at Mon Nov  1 12:29:40 2021.
