 Gaussian 16, Revision C.01,
 Gaussian 16:  ES64L-G16RevC.01  3-Jul-2019

 -----------------
 # mp2/aug-cc-pvdz
 -----------------

 --------------
 pgT2_TT_75.pdb
 --------------
 Symbolic Z-matrix:
 Charge =  0 Multiplicity = 1

                         Standard orientation:
 ---------------------------------------------------------------------
 Center     Atomic      Atomic             Coordinates (Angstroms)
 Number     Number       Type             X           Y           Z
 ---------------------------------------------------------------------
      1          6           0        3.809454    0.243538    0.510701
      2          6           0        2.449249    0.584332    0.788730
      3          6           0        1.569768   -0.068864    0.000790
      4          6           0        3.940127   -0.660256   -0.485784
      5         16           0        2.390529   -1.122976   -1.114781
      6          1           0        4.850403   -1.081561   -0.873726
      7          6           0        0.099740    0.020915    0.019723
      8         16           0       -0.710224    1.438254   -0.636104
      9          6           0       -2.260263    0.749324   -0.274228
     10          6           0       -2.130292   -0.478498    0.290539
     11          6           0       -0.780290   -0.907572    0.462846
     12          1           0       -0.470309   -1.845895    0.886592
     13         16           0       -3.690336   -1.167392    0.662409
     14          6           0       -4.480308    0.240027    0.026631
     15          6           0       -3.620270    1.178434   -0.436540
     16          1           0       -5.560325    0.299847    0.035870
     17          1           0       -3.930251    2.116757   -0.860286
     18          1           0        2.138727    1.277249    1.565931
     19          8           0        4.869023    0.756312    1.179266
     20          1           0        4.598582    1.408663    1.806641
 ---------------------------------------------------------------------

 SCF Done:  E(RHF) =  -1649.64158435     A.U. after   17 cycles
 E2 =    -0.1967905344D+01 EUMP2 =    -0.16516094896931D+04

 The electronic state is 1-A.
 Alpha  occ. eigenvalues --  -91.99469 -91.99381 -91.98949 -20.60684 -11.31328
 Alpha  occ. eigenvalues --  -11.29345 -11.29260 -11.28193 -11.27657 -11.27468
 Alpha  occ. eigenvalues --  -11.26276 -11.26100 -11.25713 -11.25478  -8.99628
 Alpha  occ. eigenvalues --   -8.99567  -8.99114  -6.67790  -6.67732  -6.67709
 Alpha  occ. eigenvalues --   -6.67654  -6.67500  -6.67447  -6.67278  -6.67189
 Alpha  occ. eigenvalues --   -6.66992  -1.42416  -1.22280  -1.18613  -1.13203
 Alpha  occ. eigenvalues --   -1.03035  -1.02590  -0.99117  -0.95924  -0.95113
 Alpha  occ. eigenvalues --   -0.84090  -0.78485  -0.77937  -0.74941  -0.72603
 Alpha  occ. eigenvalues --   -0.72083  -0.67502  -0.66089  -0.60940  -0.60574
 Alpha  occ. eigenvalues --   -0.58303  -0.57520  -0.56755  -0.54867  -0.54207
 Alpha  occ. eigenvalues --   -0.52530  -0.51043  -0.49473  -0.48581  -0.46700
 Alpha  occ. eigenvalues --   -0.46587  -0.39181  -0.35163  -0.32948  -0.32120
 Alpha  occ. eigenvalues --   -0.30480
 Alpha virt. eigenvalues --    0.03085   0.03381   0.04448   0.04755   0.04785
 Alpha virt. eigenvalues --    0.06310   0.07477   0.08231   0.08296   0.08722
 Alpha virt. eigenvalues --    0.09615   0.09866   0.10370   0.10868   0.11343

 Mulliken charges:
               1
     1  C    0.561268
     2  C    0.207283
     3  C    0.402641
     4  C    0.067214
     5  S    0.408958
     6  H   -0.347139
     7  C    0.374434
     8  S    0.407188
     9  C   -0.745133
    10  C   -0.254381
    11  C    0.128458
    12  H   -0.438835
    13  S    0.649685
    14  C   -0.095332
    15  C    0.598541
    16  H   -0.367756
    17  H   -0.326536
    18  H   -0.514559
    19  O   -0.850318
    20  H    0.134319
 Sum of Mulliken charges =  -0.00000

 Dipole moment (field-independent basis, Debye):
    X=             -1.1036    Y=              1.2717    Z=              1.3089  Tot=              2.1327
 Quadrupole moment (field-independent basis, Debye-Ang):
   XX=            -96.6122   YY=            -99.4408   ZZ=           -103.4730
   XY=             -1.1299   XZ=              4.2614   YZ=              2.2600

 Normal termination of Gaussian 16 at Mon Nov  1 12:18:57 2021.
