 Gaussian 16, Revision C.01,
 Gaussian 16:  ES64L-G16RevC.01  3-Jul-2019

 -----------------
 # mp2/aug-cc-pvdz
 -----------------

 ----------------
 pgT2_TT_-120.pdb
 ----------------
 Symbolic Z-matrix:
 Charge =  0 Multiplicity = 1

                         Standard orientation:
 ---------------------------------------------------------------------
 Center     Atomic      Atomic             Coordinates (Angstroms)
 Number     Number       Type             X           Y           Z
 ---------------------------------------------------------------------
      1          6           0       -3.770125    0.667806   -0.286981
      2          6           0       -2.370424    0.918499   -0.527997
      3          6           0       -1.569542    0.008830    0.071329
      4          6           0       -3.989048   -0.432365    0.453085
      5         16           0       -2.488343   -1.191685    0.911905
      6          1           0       -4.928621   -0.842844    0.763745
      7          6           0       -0.099553   -0.030460    0.030235
      8         16           0        0.750617   -1.419993   -0.640518
      9          6           0        2.280462   -0.649284   -0.351585
     10          6           0        2.120287    0.580590    0.208643
     11          6           0        0.750273    0.949912    0.429691
     12          1           0        0.420165    1.869714    0.880018
     13         16           0        3.650131    1.351299    0.497576
     14          6           0        4.490316   -0.038240   -0.153170
     15          6           0        3.650483   -1.018607   -0.562634
     16          1           0        5.560286   -0.037723   -0.193964
     17          1           0        3.980611   -1.948411   -0.992961
     18          1           0       -2.001263    1.738730   -1.128199
     19          8           0       -4.770858    1.437369   -0.776171
     20          1           0       -4.421577    2.147582   -1.286367
 ---------------------------------------------------------------------

 SCF Done:  E(RHF) =  -1649.64221004     A.U. after   17 cycles
 E2 =    -0.1967834130D+01 EUMP2 =    -0.16516100441674D+04

 The electronic state is 1-A.
 Alpha  occ. eigenvalues --  -91.99529 -91.99415 -91.98899 -20.60787 -11.31394
 Alpha  occ. eigenvalues --  -11.29537 -11.29374 -11.28199 -11.27724 -11.27576
 Alpha  occ. eigenvalues --  -11.26453 -11.26201 -11.25637 -11.25568  -8.99677
 Alpha  occ. eigenvalues --   -8.99587  -8.99094  -6.67840  -6.67759  -6.67753
 Alpha  occ. eigenvalues --   -6.67674  -6.67549  -6.67469  -6.67263  -6.67170
 Alpha  occ. eigenvalues --   -6.66971  -1.42608  -1.22148  -1.18639  -1.13051
 Alpha  occ. eigenvalues --   -1.03157  -1.02591  -0.98956  -0.96147  -0.94980
 Alpha  occ. eigenvalues --   -0.84196  -0.78716  -0.77913  -0.74599  -0.72766
 Alpha  occ. eigenvalues --   -0.72242  -0.67606  -0.66242  -0.61312  -0.60622
 Alpha  occ. eigenvalues --   -0.58195  -0.57394  -0.56559  -0.54943  -0.54150
 Alpha  occ. eigenvalues --   -0.52610  -0.51003  -0.49747  -0.48526  -0.46778
 Alpha  occ. eigenvalues --   -0.46628  -0.39240  -0.35325  -0.33042  -0.32645
 Alpha  occ. eigenvalues --   -0.29871
 Alpha virt. eigenvalues --    0.02968   0.03383   0.04530   0.04730   0.04799
 Alpha virt. eigenvalues --    0.05994   0.07509   0.08210   0.08217   0.09076
 Alpha virt. eigenvalues --    0.09450   0.10276   0.10478   0.10802   0.11451

 Mulliken charges:
               1
     1  C    0.501908
     2  C    0.183084
     3  C    0.515156
     4  C    0.090364
     5  S    0.439509
     6  H   -0.356448
     7  C    0.339621
     8  S    0.399309
     9  C   -0.798746
    10  C   -0.100714
    11  C    0.052360
    12  H   -0.433711
    13  S    0.621870
    14  C   -0.050414
    15  C    0.563883
    16  H   -0.388066
    17  H   -0.324499
    18  H   -0.539783
    19  O   -0.844736
    20  H    0.130051
 Sum of Mulliken charges =  -0.00000

 Dipole moment (field-independent basis, Debye):
    X=              1.2303    Y=              1.3704    Z=             -1.0650  Tot=              2.1274
 Quadrupole moment (field-independent basis, Debye-Ang):
   XX=            -97.0684   YY=            -97.2141   ZZ=           -105.7983
   XY=             -6.2599   XZ=             -0.2601   YZ=             -1.8816

 Normal termination of Gaussian 16 at Mon Nov  1 12:00:51 2021.
