 Gaussian 16, Revision C.01,
 Gaussian 16:  ES64L-G16RevC.01  3-Jul-2019

 -----------------
 # mp2/aug-cc-pvdz
 -----------------

 ----------------
 pgT2_TT_-155.pdb
 ----------------
 Symbolic Z-matrix:
 Charge =  0 Multiplicity = 1

                         Standard orientation:
 ---------------------------------------------------------------------
 Center     Atomic      Atomic             Coordinates (Angstroms)
 Number     Number       Type             X           Y           Z
 ---------------------------------------------------------------------
      1          6           0       -3.759688    0.749903   -0.109565
      2          6           0       -2.369745    1.060478   -0.268941
      3          6           0       -1.569505    0.000355   -0.020235
      4          6           0       -3.989410   -0.520637    0.248706
      5         16           0       -2.499207   -1.400487    0.427756
      6          1           0       -4.939310   -1.001111    0.417923
      7          6           0       -0.099495   -0.029235   -0.040054
      8         16           0        0.780940   -1.518604   -0.341909
      9          6           0        2.290697   -0.688437   -0.170574
     10          6           0        2.110313    0.631168    0.091159
     11          6           0        0.730200    1.020701    0.171472
     12          1           0        0.389905    2.010291    0.412741
     13         16           0        3.620071    1.461334    0.262494
     14          6           0        4.490504   -0.028050   -0.029363
     15          6           0        3.670810   -1.077983   -0.240887
     16          1           0        5.560502   -0.027784   -0.019202
     17          1           0        4.031101   -2.077621   -0.442167
     18          1           0       -1.999950    2.031001   -0.587591
     19          8           0       -4.759891    1.649921   -0.318514
     20          1           0       -4.420066    2.480382   -0.597356
 ---------------------------------------------------------------------

 SCF Done:  E(RHF) =  -1649.64176678     A.U. after   17 cycles
 E2 =    -0.1967618708D+01 EUMP2 =    -0.16516093854895D+04

 The electronic state is 1-A.
 Alpha  occ. eigenvalues --  -91.99582 -91.99412 -91.98989 -20.60629 -11.31384
 Alpha  occ. eigenvalues --  -11.29705 -11.29627 -11.28126 -11.27738 -11.27588
 Alpha  occ. eigenvalues --  -11.26384 -11.26235 -11.25679 -11.25465  -8.99778
 Alpha  occ. eigenvalues --   -8.99602  -8.99190  -6.67944  -6.67864  -6.67770
 Alpha  occ. eigenvalues --   -6.67691  -6.67651  -6.67484  -6.67359  -6.67268
 Alpha  occ. eigenvalues --   -6.67066  -1.42216  -1.22458  -1.18817  -1.13331
 Alpha  occ. eigenvalues --   -1.03419  -1.02735  -0.99180  -0.96300  -0.95015
 Alpha  occ. eigenvalues --   -0.84337  -0.78770  -0.77917  -0.74634  -0.73156
 Alpha  occ. eigenvalues --   -0.71983  -0.67757  -0.66250  -0.61217  -0.60515
 Alpha  occ. eigenvalues --   -0.58123  -0.57542  -0.56482  -0.54933  -0.53604
 Alpha  occ. eigenvalues --   -0.52977  -0.51554  -0.50426  -0.48455  -0.47005
 Alpha  occ. eigenvalues --   -0.46599  -0.39660  -0.36067  -0.33703  -0.32651
 Alpha  occ. eigenvalues --   -0.28769
 Alpha virt. eigenvalues --    0.02878   0.03370   0.04466   0.04777   0.04958
 Alpha virt. eigenvalues --    0.05579   0.06998   0.08302   0.08378   0.09171
 Alpha virt. eigenvalues --    0.09915   0.10134   0.10731   0.11079   0.11728

 Mulliken charges:
               1
     1  C    0.407592
     2  C    0.341795
     3  C    0.457455
     4  C    0.054974
     5  S    0.505114
     6  H   -0.361214
     7  C    0.041936
     8  S    0.465209
     9  C   -0.677676
    10  C   -0.080844
    11  C    0.430398
    12  H   -0.491179
    13  S    0.559333
    14  C   -0.111293
    15  C    0.426881
    16  H   -0.392173
    17  H   -0.318687
    18  H   -0.534064
    19  O   -0.852003
    20  H    0.128445
 Sum of Mulliken charges =  -0.00000

 Dipole moment (field-independent basis, Debye):
    X=              1.3303    Y=              1.5171    Z=             -0.4999  Tot=              2.0788
 Quadrupole moment (field-independent basis, Debye-Ang):
   XX=            -96.8254   YY=            -93.7822   ZZ=           -109.3544
   XY=             -6.9150   XZ=              0.2439   YZ=             -1.4327

 Normal termination of Gaussian 16 at Mon Nov  1 12:01:51 2021.
