 Gaussian 16, Revision C.01,
 Gaussian 16:  ES64L-G16RevC.01  3-Jul-2019

 -----------------
 # mp2/aug-cc-pvdz
 -----------------

 ---------------
 pgT2_TT_-35.pdb
 ---------------
 Symbolic Z-matrix:
 Charge =  0 Multiplicity = 1

                         Standard orientation:
 ---------------------------------------------------------------------
 Center     Atomic      Atomic             Coordinates (Angstroms)
 Number     Number       Type             X           Y           Z
 ---------------------------------------------------------------------
      1          6           0       -3.818722    0.389707    0.250825
      2          6           0       -2.458661    0.839429    0.361203
      3          6           0       -1.558785   -0.100424   -0.009468
      4          6           0       -3.918891   -0.879951   -0.190123
      5         16           0       -2.358979   -1.559944   -0.500580
      6          1           0       -4.818968   -1.449702   -0.350576
      7          6           0       -0.098770   -0.000635   -0.009348
      8         16           0        0.671462    1.529552   -0.408185
      9          6           0        2.251353    0.819146   -0.168663
     10          6           0        2.141154   -0.491091    0.170358
     11          6           0        0.801082   -0.970965    0.259958
     12          1           0        0.520928   -1.981133    0.539198
     13         16           0        3.711044   -1.201480    0.389879
     14          6           0        4.471275    0.318686    0.021034
     15          6           0        3.591426    1.309020   -0.258257
     16          1           0        5.551286    0.398530    0.021128
     17          1           0        3.881578    2.309172   -0.517503
     18          1           0       -2.188530    1.829122    0.721948
     19          8           0       -4.888623    1.149630    0.561357
     20          1           0       -4.628508    2.009391    0.832005
 ---------------------------------------------------------------------

 SCF Done:  E(RHF) =  -1649.64364059     A.U. after   17 cycles
 E2 =    -0.1967486354D+01 EUMP2 =    -0.16516111269446D+04

 The electronic state is 1-A.
 Alpha  occ. eigenvalues --  -91.99532 -91.99481 -91.98934 -20.60732 -11.31391
 Alpha  occ. eigenvalues --  -11.29547 -11.29457 -11.28263 -11.27803 -11.27600
 Alpha  occ. eigenvalues --  -11.26303 -11.26144 -11.25601 -11.25443  -8.99693
 Alpha  occ. eigenvalues --   -8.99671  -8.99152  -6.67858  -6.67836  -6.67780
 Alpha  occ. eigenvalues --   -6.67760  -6.67568  -6.67553  -6.67324  -6.67233
 Alpha  occ. eigenvalues --   -6.67030  -1.42859  -1.22448  -1.18815  -1.13361
 Alpha  occ. eigenvalues --   -1.03066  -1.02955  -0.99259  -0.96008  -0.95153
 Alpha  occ. eigenvalues --   -0.84399  -0.78759  -0.78070  -0.75302  -0.72861
 Alpha  occ. eigenvalues --   -0.71498  -0.67543  -0.66256  -0.61164  -0.60780
 Alpha  occ. eigenvalues --   -0.58501  -0.57650  -0.56919  -0.54742  -0.53824
 Alpha  occ. eigenvalues --   -0.52862  -0.51526  -0.50274  -0.48140  -0.46977
 Alpha  occ. eigenvalues --   -0.46557  -0.39523  -0.35971  -0.33327  -0.32845
 Alpha  occ. eigenvalues --   -0.28801
 Alpha virt. eigenvalues --    0.03134   0.03356   0.04347   0.04732   0.04958
 Alpha virt. eigenvalues --    0.06006   0.06652   0.08307   0.08452   0.09401
 Alpha virt. eigenvalues --    0.09530   0.10477   0.10642   0.10871   0.11712

 Mulliken charges:
               1
     1  C    0.460173
     2  C    0.187040
     3  C    0.558736
     4  C    0.084155
     5  S    0.463812
     6  H   -0.366448
     7  C    0.325897
     8  S    0.415494
     9  C   -0.643710
    10  C   -0.154348
    11  C    0.249538
    12  H   -0.467727
    13  S    0.581042
    14  C   -0.164525
    15  C    0.450245
    16  H   -0.367893
    17  H   -0.322407
    18  H   -0.575060
    19  O   -0.842106
    20  H    0.128090
 Sum of Mulliken charges =  -0.00000

 Dipole moment (field-independent basis, Debye):
    X=              1.1440    Y=              1.7142    Z=              0.6107  Tot=              2.1495
 Quadrupole moment (field-independent basis, Debye-Ang):
   XX=            -96.1574   YY=            -94.2453   ZZ=           -108.9052
   XY=              0.3572   XZ=             -2.2396   YZ=              1.2672

 Normal termination of Gaussian 16 at Mon Nov  1 12:08:03 2021.
