 Gaussian 16, Revision C.01,
 Gaussian 16:  ES64L-G16RevC.01  3-Jul-2019

 -----------------
 # mp2/aug-cc-pvdz
 -----------------

 --------------
 pgT2_TT_10.pdb
 --------------
 Symbolic Z-matrix:
 Charge =  0 Multiplicity = 1

                         Standard orientation:
 ---------------------------------------------------------------------
 Center     Atomic      Atomic             Coordinates (Angstroms)
 Number     Number       Type             X           Y           Z
 ---------------------------------------------------------------------
      1          6           0        3.830702    0.409075    0.080164
      2          6           0        2.470756    0.889229    0.110164
      3          6           0        1.560643   -0.110668    0.000164
      4          6           0        3.920550   -0.930935   -0.059836
      5         16           0        2.350469   -1.650758   -0.149836
      6          1           0        4.810484   -1.521036   -0.099836
      7          6           0        0.100656   -0.000503   -0.009836
      8         16           0       -0.669166    1.579584   -0.129836
      9          6           0       -2.239248    0.849761   -0.049836
     10          6           0       -2.149401   -0.500249    0.050164
     11          6           0       -0.809457   -1.000400    0.080164
     12          1           0       -0.539575   -2.040431    0.170164
     13         16           0       -3.729483   -1.230070    0.120164
     14          6           0       -4.469306    0.340014    0.010164
     15          6           0       -3.589192    1.349914   -0.079836
     16          1           0       -5.549297    0.420136    0.010164
     17          1           0       -3.859074    2.389945   -0.159836
     18          1           0        2.210874    1.929258    0.220164
     19          8           0        4.910794    1.218953    0.170164
     20          1           0        4.650895    2.118982    0.260164
 ---------------------------------------------------------------------

 SCF Done:  E(RHF) =  -1649.64344596     A.U. after   17 cycles
 E2 =    -0.1967168281D+01 EUMP2 =    -0.16516106142413D+04

 The electronic state is 1-A.
 Alpha  occ. eigenvalues --  -91.99593 -91.99458 -91.98900 -20.60754 -11.31550
 Alpha  occ. eigenvalues --  -11.29735 -11.29655 -11.28190 -11.27852 -11.27676
 Alpha  occ. eigenvalues --  -11.26429 -11.26192 -11.25619 -11.25479  -8.99798
 Alpha  occ. eigenvalues --   -8.99645  -8.99136  -6.67968  -6.67890  -6.67811
 Alpha  occ. eigenvalues --   -6.67733  -6.67675  -6.67525  -6.67314  -6.67222
 Alpha  occ. eigenvalues --   -6.67016  -1.42609  -1.22508  -1.18736  -1.13414
 Alpha  occ. eigenvalues --   -1.03213  -1.03038  -0.99329  -0.96019  -0.95147
 Alpha  occ. eigenvalues --   -0.84406  -0.78854  -0.78070  -0.75211  -0.73071
 Alpha  occ. eigenvalues --   -0.71484  -0.67658  -0.66261  -0.61382  -0.60653
 Alpha  occ. eigenvalues --   -0.58624  -0.57603  -0.56845  -0.54667  -0.53400
 Alpha  occ. eigenvalues --   -0.53167  -0.52139  -0.50552  -0.48011  -0.47117
 Alpha  occ. eigenvalues --   -0.46619  -0.39675  -0.36465  -0.33546  -0.32793
 Alpha  occ. eigenvalues --   -0.28332
 Alpha virt. eigenvalues --    0.03123   0.03334   0.04309   0.04711   0.04988
 Alpha virt. eigenvalues --    0.05356   0.06725   0.08287   0.08943   0.09363
 Alpha virt. eigenvalues --    0.10197   0.10530   0.10785   0.11169   0.11747

 Mulliken charges:
               1
     1  C    0.351939
     2  C    0.195057
     3  C    0.611334
     4  C    0.136555
     5  S    0.529204
     6  H   -0.412605
     7  C    0.219336
     8  S    0.540095
     9  C   -0.677066
    10  C   -0.091988
    11  C    0.338765
    12  H   -0.499044
    13  S    0.531887
    14  C   -0.177374
    15  C    0.413701
    16  H   -0.370611
    17  H   -0.331923
    18  H   -0.589529
    19  O   -0.852000
    20  H    0.134269
 Sum of Mulliken charges =  -0.00000

 Dipole moment (field-independent basis, Debye):
    X=             -1.1980    Y=              1.8142    Z=              0.2121  Tot=              2.1844
 Quadrupole moment (field-independent basis, Debye-Ang):
   XX=            -96.2424   YY=            -92.8050   ZZ=           -110.4571
   XY=             -0.2411   XZ=              0.7755   YZ=              0.4278

 Normal termination of Gaussian 16 at Mon Nov  1 12:11:53 2021.
