 Gaussian 16, Revision C.01,
 Gaussian 16:  ES64L-G16RevC.01  3-Jul-2019

 -----------------
 # mp2/aug-cc-pvdz
 -----------------

 --------------
 pgT2_TT_25.pdb
 --------------
 Symbolic Z-matrix:
 Charge =  0 Multiplicity = 1

                         Standard orientation:
 ---------------------------------------------------------------------
 Center     Atomic      Atomic             Coordinates (Angstroms)
 Number     Number       Type             X           Y           Z
 ---------------------------------------------------------------------
      1          6           0        3.820980    0.398512    0.189250
      2          6           0        2.461316    0.869453    0.259451
      3          6           0        1.560583   -0.110060    0.000153
      4          6           0        3.920012   -0.901700   -0.140207
      5         16           0        2.349468   -1.610751   -0.369422
      6          1           0        4.819591   -1.482350   -0.250221
      7          6           0        0.100654    0.000912   -0.009457
      8         16           0       -0.668400    1.551294   -0.309909
      9          6           0       -2.238820    0.842424   -0.129125
     10          6           0       -2.149641   -0.497526    0.121439
     11          6           0       -0.799948   -0.988397    0.191250
     12          1           0       -0.530564   -2.008481    0.411619
     13         16           0       -3.720071   -1.216401    0.292228
     14          6           0       -4.469116    0.333981    0.021770
     15          6           0       -3.588510    1.333300   -0.188936
     16          1           0       -5.549062    0.414704    0.022059
     17          1           0       -3.867885    2.353403   -0.379302
     18          1           0        2.192072    1.879752    0.529086
     19          8           0        4.901577    1.187891    0.418577
     20          1           0        4.642226    2.068153    0.618267
 ---------------------------------------------------------------------

 SCF Done:  E(RHF) =  -1649.64385015     A.U. after   17 cycles
 E2 =    -0.1967891674D+01 EUMP2 =    -0.16516117418293D+04

 The electronic state is 1-A.
 Alpha  occ. eigenvalues --  -91.99632 -91.99516 -91.98990 -20.60667 -11.31475
 Alpha  occ. eigenvalues --  -11.29639 -11.29548 -11.28239 -11.27890 -11.27742
 Alpha  occ. eigenvalues --  -11.26393 -11.26218 -11.25684 -11.25456  -8.99832
 Alpha  occ. eigenvalues --   -8.99699  -8.99199  -6.68001  -6.67922  -6.67865
 Alpha  occ. eigenvalues --   -6.67786  -6.67708  -6.67580  -6.67373  -6.67280
 Alpha  occ. eigenvalues --   -6.67077  -1.42400  -1.22354  -1.18720  -1.13342
 Alpha  occ. eigenvalues --   -1.03252  -1.02901  -0.99273  -0.96034  -0.95124
 Alpha  occ. eigenvalues --   -0.84302  -0.78671  -0.77974  -0.75082  -0.72992
 Alpha  occ. eigenvalues --   -0.71560  -0.67609  -0.66151  -0.61198  -0.60536
 Alpha  occ. eigenvalues --   -0.58586  -0.57491  -0.56686  -0.54687  -0.53668
 Alpha  occ. eigenvalues --   -0.53028  -0.51723  -0.50445  -0.48215  -0.47061
 Alpha  occ. eigenvalues --   -0.46721  -0.39646  -0.36126  -0.33543  -0.32768
 Alpha  occ. eigenvalues --   -0.28617
 Alpha virt. eigenvalues --    0.03137   0.03350   0.04327   0.04720   0.04973
 Alpha virt. eigenvalues --    0.05702   0.06687   0.08294   0.08633   0.09410
 Alpha virt. eigenvalues --    0.09762   0.10541   0.10613   0.10963   0.11682

 Mulliken charges:
               1
     1  C    0.435857
     2  C    0.212619
     3  C    0.598915
     4  C    0.071383
     5  S    0.476950
     6  H   -0.377953
     7  C    0.276551
     8  S    0.476588
     9  C   -0.693780
    10  C   -0.130129
    11  C    0.284097
    12  H   -0.497397
    13  S    0.560276
    14  C   -0.159431
    15  C    0.470533
    16  H   -0.367253
    17  H   -0.328474
    18  H   -0.589774
    19  O   -0.848861
    20  H    0.129284
 Sum of Mulliken charges =  -0.00000

 Dipole moment (field-independent basis, Debye):
    X=             -1.2049    Y=              1.7471    Z=              0.4614  Tot=              2.1719
 Quadrupole moment (field-independent basis, Debye-Ang):
   XX=            -96.5592   YY=            -93.4455   ZZ=           -109.6949
   XY=             -0.3827   XZ=              1.6032   YZ=              0.9458

 Normal termination of Gaussian 16 at Mon Nov  1 12:13:58 2021.
