 Gaussian 16, Revision C.01,
 Gaussian 16:  ES64L-G16RevC.01  3-Jul-2019

 -----------------
 # mp2/aug-cc-pvdz
 -----------------

 --------------
 pgT2_TT_65.pdb
 --------------
 Symbolic Z-matrix:
 Charge =  0 Multiplicity = 1

                         Standard orientation:
 ---------------------------------------------------------------------
 Center     Atomic      Atomic             Coordinates (Angstroms)
 Number     Number       Type             X           Y           Z
 ---------------------------------------------------------------------
      1          6           0        3.819876    0.308160    0.436265
      2          6           0        2.450209    0.698841    0.667093
      3          6           0        1.569395   -0.071076   -0.001931
      4          6           0        3.928822   -0.752248   -0.393353
      5         16           0        2.368203   -1.301816   -0.921978
      6          1           0        4.838381   -1.242773   -0.713802
      7          6           0        0.099448    0.019556    0.019099
      8         16           0       -0.700418    1.449613   -0.630940
      9          6           0       -2.260448    0.760432   -0.269505
     10          6           0       -2.130574   -0.479384    0.280940
     11          6           0       -0.780640   -0.909887    0.440145
     12          1           0       -0.480737   -1.859832    0.860340
     13         16           0       -3.690607   -1.158569    0.632372
     14          6           0       -4.480444    0.271500    0.022324
     15          6           0       -3.620377    1.200939   -0.428706
     16          1           0       -5.550422    0.321954    0.023082
     17          1           0       -3.920273    2.150888   -0.838901
     18          1           0        2.161023    1.519243    1.306947
     19          8           0        4.890542    0.917949    0.995221
     20          1           0        4.621220    1.658281    1.495095
 ---------------------------------------------------------------------

 SCF Done:  E(RHF) =  -1649.64212821     A.U. after   17 cycles
 E2 =    -0.1966426203D+01 EUMP2 =    -0.16516085544088D+04

 The electronic state is 1-A.
 Alpha  occ. eigenvalues --  -91.99508 -91.99326 -91.98972 -20.60732 -11.31466
 Alpha  occ. eigenvalues --  -11.29390 -11.29279 -11.28050 -11.27752 -11.27530
 Alpha  occ. eigenvalues --  -11.26247 -11.26099 -11.25745 -11.25493  -8.99644
 Alpha  occ. eigenvalues --   -8.99514  -8.99159  -6.67805  -6.67726  -6.67680
 Alpha  occ. eigenvalues --   -6.67602  -6.67517  -6.67395  -6.67326  -6.67234
 Alpha  occ. eigenvalues --   -6.67035  -1.42835  -1.22250  -1.18671  -1.13263
 Alpha  occ. eigenvalues --   -1.02914  -1.02779  -0.99133  -0.96159  -0.94974
 Alpha  occ. eigenvalues --   -0.84182  -0.78570  -0.77937  -0.75110  -0.72689
 Alpha  occ. eigenvalues --   -0.71905  -0.67511  -0.66324  -0.61164  -0.60650
 Alpha  occ. eigenvalues --   -0.58424  -0.57605  -0.56827  -0.54754  -0.54090
 Alpha  occ. eigenvalues --   -0.52565  -0.51077  -0.49633  -0.48494  -0.46777
 Alpha  occ. eigenvalues --   -0.46516  -0.39338  -0.35320  -0.33020  -0.32444
 Alpha  occ. eigenvalues --   -0.30128
 Alpha virt. eigenvalues --    0.03112   0.03375   0.04415   0.04742   0.04848
 Alpha virt. eigenvalues --    0.06378   0.07211   0.08229   0.08316   0.08825
 Alpha virt. eigenvalues --    0.09727   0.10012   0.10477   0.10897   0.11381

 Mulliken charges:
               1
     1  C    0.513533
     2  C    0.260027
     3  C    0.439102
     4  C    0.066190
     5  S    0.407012
     6  H   -0.338420
     7  C    0.383485
     8  S    0.385900
     9  C   -0.728245
    10  C   -0.280454
    11  C    0.182846
    12  H   -0.442591
    13  S    0.637179
    14  C   -0.071635
    15  C    0.546116
    16  H   -0.386346
    17  H   -0.319710
    18  H   -0.543791
    19  O   -0.829892
    20  H    0.119695
 Sum of Mulliken charges =  -0.00000

 Dipole moment (field-independent basis, Debye):
    X=             -1.1001    Y=              1.4762    Z=              1.0462  Tot=              2.1175
 Quadrupole moment (field-independent basis, Debye-Ang):
   XX=            -96.4947   YY=            -97.6716   ZZ=           -105.3849
   XY=             -0.8209   XZ=              3.8040   YZ=              2.1245

 Normal termination of Gaussian 16 at Mon Nov  1 12:16:41 2021.
