 Gaussian 16, Revision C.01,
 Gaussian 16:  ES64L-G16RevC.01  3-Jul-2019

 -----------------
 # mp2/aug-cc-pvdz
 -----------------

 ----------------
 pgT2_TT_-170.pdb
 ----------------
 Symbolic Z-matrix:
 Charge =  0 Multiplicity = 1

                         Standard orientation:
 ---------------------------------------------------------------------
 Center     Atomic      Atomic             Coordinates (Angstroms)
 Number     Number       Type             X           Y           Z
 ---------------------------------------------------------------------
      1          6           0       -3.759665    0.772511   -0.043716
      2          6           0       -2.369486    1.091789   -0.123494
      3          6           0       -1.570079    0.001337   -0.023685
      4          6           0       -4.000382   -0.537400    0.115930
      5         16           0       -2.520870   -1.438208    0.185856
      6          1           0       -4.950657   -1.036913    0.195707
      7          6           0       -0.100089   -0.019446   -0.033540
      8         16           0        0.779111   -1.539886   -0.153831
      9          6           0        2.299552   -0.700718   -0.073464
     10          6           0        2.110256    0.639355    0.036852
     11          6           0        0.740467    1.040080    0.066812
     12          1           0        0.401002    2.060236    0.167033
     13         16           0        3.630696    1.478523    0.117219
     14          6           0        4.489902   -0.031906   -0.003072
     15          6           0        3.679340   -1.101451   -0.093423
     16          1           0        5.569901   -0.032486    0.007039
     17          1           0        4.028804   -2.121615   -0.183644
     18          1           0       -1.998931    2.101629   -0.273202
     19          8           0       -4.749166    1.693060   -0.123587
     20          1           0       -4.398692    2.552908   -0.263335
 ---------------------------------------------------------------------

 SCF Done:  E(RHF) =  -1649.64091772     A.U. after   18 cycles
 E2 =    -0.1968271735D+01 EUMP2 =    -0.16516091894549D+04

 The electronic state is 1-A.
 Alpha  occ. eigenvalues --  -91.99518 -91.99431 -91.98997 -20.60694 -11.31317
 Alpha  occ. eigenvalues --  -11.29814 -11.29723 -11.28169 -11.27807 -11.27649
 Alpha  occ. eigenvalues --  -11.26423 -11.26222 -11.25592 -11.25393  -8.99705
 Alpha  occ. eigenvalues --   -8.99624  -8.99218  -6.67870  -6.67792  -6.67791
 Alpha  occ. eigenvalues --   -6.67713  -6.67579  -6.67505  -6.67390  -6.67299
 Alpha  occ. eigenvalues --   -6.67096  -1.42633  -1.22449  -1.18881  -1.13393
 Alpha  occ. eigenvalues --   -1.03341  -1.02802  -0.99253  -0.96286  -0.95009
 Alpha  occ. eigenvalues --   -0.84425  -0.78925  -0.77856  -0.74725  -0.73246
 Alpha  occ. eigenvalues --   -0.71937  -0.67782  -0.66227  -0.61337  -0.60748
 Alpha  occ. eigenvalues --   -0.58280  -0.57555  -0.56225  -0.55014  -0.53271
 Alpha  occ. eigenvalues --   -0.53086  -0.52069  -0.50596  -0.48366  -0.47046
 Alpha  occ. eigenvalues --   -0.46342  -0.39784  -0.36244  -0.33842  -0.32566
 Alpha  occ. eigenvalues --   -0.28355
 Alpha virt. eigenvalues --    0.02829   0.03366   0.04437   0.04773   0.05034
 Alpha virt. eigenvalues --    0.05305   0.07325   0.08334   0.08726   0.09140
 Alpha virt. eigenvalues --    0.09905   0.10252   0.10845   0.11129   0.11966

 Mulliken charges:
               1
     1  C    0.326167
     2  C    0.529974
     3  C    0.361024
     4  C    0.035737
     5  S    0.508094
     6  H   -0.378153
     7  C   -0.152158
     8  S    0.484360
     9  C   -0.671364
    10  C   -0.006948
    11  C    0.706287
    12  H   -0.514916
    13  S    0.519954
    14  C   -0.193649
    15  C    0.409742
    16  H   -0.373539
    17  H   -0.316112
    18  H   -0.549799
    19  O   -0.849682
    20  H    0.124983
 Sum of Mulliken charges =  -0.00000

 Dipole moment (field-independent basis, Debye):
    X=              1.3253    Y=              1.5966    Z=             -0.2423  Tot=              2.0891
 Quadrupole moment (field-independent basis, Debye-Ang):
   XX=            -96.5848   YY=            -92.8215   ZZ=           -110.3175
   XY=             -7.1377   XZ=              0.2764   YZ=             -0.8026

 Normal termination of Gaussian 16 at Mon Nov  1 11:45:24 2021.
