 Gaussian 16, Revision C.01,
 Gaussian 16:  ES64L-G16RevC.01  3-Jul-2019

 -----------------
 # mp2/aug-cc-pvdz
 -----------------

 ---------------
 pgT2_TT_125.pdb
 ---------------
 Symbolic Z-matrix:
 Charge =  0 Multiplicity = 1

                         Standard orientation:
 ---------------------------------------------------------------------
 Center     Atomic      Atomic             Coordinates (Angstroms)
 Number     Number       Type             X           Y           Z
 ---------------------------------------------------------------------
      1          6           0        3.760022    0.678957   -0.268659
      2          6           0        2.370061    0.949429   -0.488327
      3          6           0        1.569921    0.008941    0.060634
      4          6           0        3.989854   -0.451853    0.420067
      5         16           0        2.499737   -1.232084    0.839222
      6          1           0        4.939792   -0.872332    0.709576
      7          6           0        0.099913   -0.030777    0.020619
      8         16           0       -0.760325   -1.429941   -0.600934
      9          6           0       -2.280195   -0.660000   -0.330039
     10          6           0       -2.119983    0.589390    0.191361
     11          6           0       -0.749919    0.958933    0.401748
     12          1           0       -0.409760    1.888395    0.832784
     13         16           0       -3.639851    1.369321    0.472267
     14          6           0       -4.490091   -0.039857   -0.139298
     15          6           0       -3.660259   -1.029563   -0.520426
     16          1           0       -5.560092   -0.039650   -0.169275
     17          1           0       -3.990419   -1.969049   -0.931474
     18          1           0        1.990185    1.790118   -1.047376
     19          8           0        4.760142    1.479289   -0.707781
     20          1           0        4.420250    2.209883   -1.186955
 ---------------------------------------------------------------------

 SCF Done:  E(RHF) =  -1649.64229236     A.U. after   17 cycles
 E2 =    -0.1967347426D+01 EUMP2 =    -0.16516096397841D+04

 The electronic state is 1-A.
 Alpha  occ. eigenvalues --  -91.99539 -91.99347 -91.98902 -20.60606 -11.31293
 Alpha  occ. eigenvalues --  -11.29529 -11.29414 -11.28154 -11.27696 -11.27549
 Alpha  occ. eigenvalues --  -11.26432 -11.26226 -11.25642 -11.25443  -8.99723
 Alpha  occ. eigenvalues --   -8.99526  -8.99106  -6.67888  -6.67807  -6.67694
 Alpha  occ. eigenvalues --   -6.67613  -6.67596  -6.67407  -6.67274  -6.67184
 Alpha  occ. eigenvalues --   -6.66984  -1.42593  -1.22256  -1.18782  -1.13168
 Alpha  occ. eigenvalues --   -1.03286  -1.02689  -0.99129  -0.96221  -0.94890
 Alpha  occ. eigenvalues --   -0.84249  -0.78723  -0.77855  -0.74615  -0.72936
 Alpha  occ. eigenvalues --   -0.72285  -0.67542  -0.66265  -0.61234  -0.60628
 Alpha  occ. eigenvalues --   -0.58186  -0.57379  -0.56688  -0.54995  -0.54040
 Alpha  occ. eigenvalues --   -0.52821  -0.51029  -0.49864  -0.48480  -0.46832
 Alpha  occ. eigenvalues --   -0.46645  -0.39356  -0.35562  -0.33109  -0.32554
 Alpha  occ. eigenvalues --   -0.29671
 Alpha virt. eigenvalues --    0.02970   0.03380   0.04516   0.04749   0.04818
 Alpha virt. eigenvalues --    0.05956   0.07402   0.08230   0.08238   0.09152
 Alpha virt. eigenvalues --    0.09429   0.10333   0.10577   0.10839   0.11460

 Mulliken charges:
               1
     1  C    0.518731
     2  C    0.210289
     3  C    0.497119
     4  C    0.037587
     5  S    0.459755
     6  H   -0.340418
     7  C    0.322318
     8  S    0.422578
     9  C   -0.842164
    10  C   -0.049079
    11  C    0.028149
    12  H   -0.431913
    13  S    0.607913
    14  C   -0.040836
    15  C    0.568757
    16  H   -0.388136
    17  H   -0.324980
    18  H   -0.541717
    19  O   -0.839953
    20  H    0.125999
 Sum of Mulliken charges =  -0.00000

 Dipole moment (field-independent basis, Debye):
    X=             -1.2315    Y=              1.3585    Z=             -1.0004  Tot=              2.0888
 Quadrupole moment (field-independent basis, Debye-Ang):
   XX=            -96.9297   YY=            -96.7029   ZZ=           -106.3346
   XY=              6.4013   XZ=              0.2604   YZ=             -1.8333

 Normal termination of Gaussian 16 at Mon Nov  1 12:22:56 2021.
