 Gaussian 16, Revision C.01,
 Gaussian 16:  ES64L-G16RevC.01  3-Jul-2019

 -----------------
 # mp2/aug-cc-pvdz
 -----------------

 ----------------
 pgT2_TT_-110.pdb
 ----------------
 Symbolic Z-matrix:
 Charge =  0 Multiplicity = 1

                         Standard orientation:
 ---------------------------------------------------------------------
 Center     Atomic      Atomic             Coordinates (Angstroms)
 Number     Number       Type             X           Y           Z
 ---------------------------------------------------------------------
      1          6           0       -3.770576    0.609915   -0.351488
      2          6           0       -2.380592    0.840347   -0.621203
      3          6           0       -1.570505    0.020128    0.078439
      4          6           0       -3.980476   -0.380616    0.537944
      5         16           0       -2.480396   -1.070607    1.077736
      6          1           0       -4.930441   -0.751008    0.897632
      7          6           0       -0.090491   -0.019542    0.028586
      8         16           0        0.739872   -1.388972   -0.702073
      9          6           0        2.279683   -0.638828   -0.391485
     10          6           0        2.119366    0.570799    0.229162
     11          6           0        0.759265    0.930389    0.469204
     12          1           0        0.429026    1.830058    0.949661
     13         16           0        3.659179    1.310942    0.539744
     14          6           0        4.489539   -0.048492   -0.180909
     15          6           0        3.639785   -1.008424   -0.621533
     16          1           0        5.559545   -0.048247   -0.230787
     17          1           0        3.970025   -1.918093   -1.101995
     18          1           0       -2.010664    1.580807   -1.320754
     19          8           0       -4.780654    1.310022   -0.921218
     20          1           0       -4.440715    1.950427   -1.530828
 ---------------------------------------------------------------------

 SCF Done:  E(RHF) =  -1649.64158823     A.U. after   17 cycles
 E2 =    -0.1968419005D+01 EUMP2 =    -0.16516100072388D+04

 The electronic state is 1-A.
 Alpha  occ. eigenvalues --  -91.99477 -91.99410 -91.98915 -20.60772 -11.31305
 Alpha  occ. eigenvalues --  -11.29424 -11.29326 -11.28199 -11.27758 -11.27596
 Alpha  occ. eigenvalues --  -11.26247 -11.26183 -11.25722 -11.25516  -8.99619
 Alpha  occ. eigenvalues --   -8.99581  -8.99094  -6.67781  -6.67747  -6.67700
 Alpha  occ. eigenvalues --   -6.67669  -6.67491  -6.67464  -6.67260  -6.67170
 Alpha  occ. eigenvalues --   -6.66971  -1.42397  -1.22158  -1.18612  -1.13142
 Alpha  occ. eigenvalues --   -1.03106  -1.02525  -0.99013  -0.96135  -0.94947
 Alpha  occ. eigenvalues --   -0.84023  -0.78462  -0.77833  -0.74778  -0.72648
 Alpha  occ. eigenvalues --   -0.72265  -0.67584  -0.66103  -0.61053  -0.60581
 Alpha  occ. eigenvalues --   -0.58280  -0.57579  -0.56575  -0.54898  -0.54189
 Alpha  occ. eigenvalues --   -0.52446  -0.50912  -0.49591  -0.48622  -0.46672
 Alpha  occ. eigenvalues --   -0.46564  -0.39325  -0.35259  -0.32692  -0.32543
 Alpha  occ. eigenvalues --   -0.30232
 Alpha virt. eigenvalues --    0.02994   0.03382   0.04555   0.04676   0.04787
 Alpha virt. eigenvalues --    0.06072   0.07799   0.08120   0.08199   0.08887
 Alpha virt. eigenvalues --    0.09446   0.10120   0.10422   0.10760   0.11418

 Mulliken charges:
               1
     1  C    0.565155
     2  C    0.176097
     3  C    0.440873
     4  C    0.030676
     5  S    0.431090
     6  H   -0.335045
     7  C    0.336067
     8  S    0.387947
     9  C   -0.760166
    10  C   -0.211549
    11  C    0.157161
    12  H   -0.430722
    13  S    0.641960
    14  C   -0.068443
    15  C    0.584759
    16  H   -0.388047
    17  H   -0.316745
    18  H   -0.523184
    19  O   -0.854545
    20  H    0.136660
 Sum of Mulliken charges =  -0.00000

 Dipole moment (field-independent basis, Debye):
    X=              1.2119    Y=              1.2473    Z=             -1.2758  Tot=              2.1569
 Quadrupole moment (field-independent basis, Debye-Ang):
   XX=            -97.1730   YY=            -98.7462   ZZ=           -104.1739
   XY=             -5.9703   XZ=             -0.0512   YZ=             -2.0240

 Normal termination of Gaussian 16 at Mon Nov  1 12:02:36 2021.
