 Gaussian 16, Revision C.01,
 Gaussian 16:  ES64L-G16RevC.01  3-Jul-2019

 -----------------
 # mp2/aug-cc-pvdz
 -----------------

 ----------------
 pgT2_TT_-150.pdb
 ----------------
 Symbolic Z-matrix:
 Charge =  0 Multiplicity = 1

                         Standard orientation:
 ---------------------------------------------------------------------
 Center     Atomic      Atomic             Coordinates (Angstroms)
 Number     Number       Type             X           Y           Z
 ---------------------------------------------------------------------
      1          6           0       -3.760903    0.750231   -0.138911
      2          6           0       -2.370979    1.050624   -0.308844
      3          6           0       -1.570739    0.000590   -0.009607
      4          6           0       -3.990606   -0.520091    0.280277
      5         16           0       -2.500412   -1.379933    0.499574
      6          1           0       -4.940495   -0.980408    0.470063
      7          6           0       -0.100736   -0.029093   -0.039764
      8         16           0        0.779532   -1.508684   -0.390817
      9          6           0        2.289383   -0.688503   -0.200419
     10          6           0        2.109145    0.631256    0.110464
     11          6           0        0.729077    1.010911    0.210841
     12          1           0        0.388903    2.000658    0.491523
     13         16           0        3.628996    1.451439    0.300860
     14          6           0        4.489264   -0.028163   -0.040191
     15          6           0        3.669454   -1.078165   -0.290804
     16          1           0        5.559264   -0.027946   -0.040291
     17          1           0        4.019633   -2.067943   -0.521486
     18          1           0       -2.001203    1.990935   -0.668261
     19          8           0       -4.761103    1.630186   -0.378240
     20          1           0       -4.421297    2.440465   -0.697740
 ---------------------------------------------------------------------

 SCF Done:  E(RHF) =  -1649.64209288     A.U. after   17 cycles
 E2 =    -0.1969492221D+01 EUMP2 =    -0.16516115851035D+04

 The electronic state is 1-A.
 Alpha  occ. eigenvalues --  -91.99595 -91.99526 -91.99025 -20.60732 -11.31528
 Alpha  occ. eigenvalues --  -11.29665 -11.29585 -11.28205 -11.27844 -11.27703
 Alpha  occ. eigenvalues --  -11.26462 -11.26265 -11.25687 -11.25324  -8.99788
 Alpha  occ. eigenvalues --   -8.99699  -8.99216  -6.67954  -6.67874  -6.67865
 Alpha  occ. eigenvalues --   -6.67787  -6.67661  -6.67581  -6.67386  -6.67295
 Alpha  occ. eigenvalues --   -6.67096  -1.42773  -1.22259  -1.18612  -1.13206
 Alpha  occ. eigenvalues --   -1.03377  -1.02525  -0.99276  -0.96077  -0.95000
 Alpha  occ. eigenvalues --   -0.84295  -0.78951  -0.77854  -0.74679  -0.73172
 Alpha  occ. eigenvalues --   -0.72108  -0.67697  -0.66273  -0.61319  -0.60662
 Alpha  occ. eigenvalues --   -0.58185  -0.57461  -0.56346  -0.54914  -0.53795
 Alpha  occ. eigenvalues --   -0.52907  -0.51444  -0.50443  -0.48467  -0.47000
 Alpha  occ. eigenvalues --   -0.46595  -0.39620  -0.35929  -0.33411  -0.32639
 Alpha  occ. eigenvalues --   -0.28638
 Alpha virt. eigenvalues --    0.02884   0.03375   0.04483   0.04776   0.04922
 Alpha virt. eigenvalues --    0.05650   0.06929   0.08286   0.08333   0.09202
 Alpha virt. eigenvalues --    0.09807   0.10145   0.10728   0.11056   0.11669

 Mulliken charges:
               1
     1  C    0.368958
     2  C    0.376359
     3  C    0.432602
     4  C    0.093354
     5  S    0.512325
     6  H   -0.369329
     7  C    0.108880
     8  S    0.456471
     9  C   -0.705316
    10  C   -0.114150
    11  C    0.313797
    12  H   -0.461277
    13  S    0.581172
    14  C   -0.075811
    15  C    0.479878
    16  H   -0.393292
    17  H   -0.327706
    18  H   -0.564610
    19  O   -0.836115
    20  H    0.123812
 Sum of Mulliken charges =  -0.00000

 Dipole moment (field-independent basis, Debye):
    X=              1.3087    Y=              1.5350    Z=             -0.5951  Tot=              2.1032
 Quadrupole moment (field-independent basis, Debye-Ang):
   XX=            -96.7556   YY=            -94.0859   ZZ=           -109.0065
   XY=             -6.9674   XZ=              0.2907   YZ=             -1.5792

 Normal termination of Gaussian 16 at Mon Nov  1 12:01:18 2021.
