 Gaussian 16, Revision C.01,
 Gaussian 16:  ES64L-G16RevC.01  3-Jul-2019

 -----------------
 # mp2/aug-cc-pvdz
 -----------------

 --------------
 pgT2_TT_15.pdb
 --------------
 Symbolic Z-matrix:
 Charge =  0 Multiplicity = 1

                         Standard orientation:
 ---------------------------------------------------------------------
 Center     Atomic      Atomic             Coordinates (Angstroms)
 Number     Number       Type             X           Y           Z
 ---------------------------------------------------------------------
      1          6           0        3.819929    0.409697    0.118295
      2          6           0        2.470098    0.880169    0.158469
      3          6           0        1.559718   -0.109617   -0.000688
      4          6           0        3.919422   -0.920446   -0.081000
      5         16           0        2.349135   -1.640007   -0.230094
      6          1           0        4.819203   -1.510785   -0.150962
      7          6           0        0.099751    0.000863   -0.010279
      8         16           0       -0.669785    1.571019   -0.190902
      9          6           0       -2.239989    0.851602   -0.079996
     10          6           0       -2.150386   -0.498339    0.080724
     11          6           0       -0.810539   -0.998762    0.120570
     12          1           0       -0.540840   -2.028780    0.251054
     13         16           0       -3.720596   -1.227761    0.181636
     14          6           0       -4.470129    0.342394    0.011006
     15          6           0       -3.589839    1.342029   -0.119833
     16          1           0       -5.550102    0.412759    0.021316
     17          1           0       -3.859531    2.382052   -0.240323
     18          1           0        2.210496    1.910349    0.327981
     19          8           0        4.910240    1.209412    0.257499
     20          1           0        4.650578    2.109565    0.377083
 ---------------------------------------------------------------------

 SCF Done:  E(RHF) =  -1649.64351326     A.U. after   17 cycles
 E2 =    -0.1967902450D+01 EUMP2 =    -0.16516114157067D+04

 The electronic state is 1-A.
 Alpha  occ. eigenvalues --  -91.99649 -91.99399 -91.98965 -20.60721 -11.31405
 Alpha  occ. eigenvalues --  -11.29742 -11.29646 -11.28175 -11.27841 -11.27685
 Alpha  occ. eigenvalues --  -11.26381 -11.26203 -11.25747 -11.25360  -8.99856
 Alpha  occ. eigenvalues --   -8.99589  -8.99188  -6.68027  -6.67949  -6.67755
 Alpha  occ. eigenvalues --   -6.67735  -6.67676  -6.67468  -6.67363  -6.67272
 Alpha  occ. eigenvalues --   -6.67068  -1.42248  -1.22501  -1.18871  -1.13425
 Alpha  occ. eigenvalues --   -1.03285  -1.03015  -0.99470  -0.96048  -0.95085
 Alpha  occ. eigenvalues --   -0.84409  -0.78606  -0.78009  -0.75214  -0.73059
 Alpha  occ. eigenvalues --   -0.71557  -0.67655  -0.66234  -0.61192  -0.60548
 Alpha  occ. eigenvalues --   -0.58677  -0.57594  -0.56809  -0.54752  -0.53464
 Alpha  occ. eigenvalues --   -0.53287  -0.52023  -0.50437  -0.48062  -0.47111
 Alpha  occ. eigenvalues --   -0.46635  -0.39738  -0.36396  -0.33684  -0.32753
 Alpha  occ. eigenvalues --   -0.28353
 Alpha virt. eigenvalues --    0.03129   0.03340   0.04314   0.04710   0.04980
 Alpha virt. eigenvalues --    0.05391   0.06712   0.08295   0.08864   0.09366
 Alpha virt. eigenvalues --    0.10081   0.10535   0.10693   0.11084   0.11686

 Mulliken charges:
               1
     1  C    0.380813
     2  C    0.285448
     3  C    0.595384
     4  C    0.050913
     5  S    0.501169
     6  H   -0.384795
     7  C    0.217041
     8  S    0.523374
     9  C   -0.698586
    10  C   -0.101266
    11  C    0.361587
    12  H   -0.511632
    13  S    0.524287
    14  C   -0.178276
    15  C    0.442070
    16  H   -0.368828
    17  H   -0.324155
    18  H   -0.595181
    19  O   -0.854613
    20  H    0.135247
 Sum of Mulliken charges =  -0.00000

 Dipole moment (field-independent basis, Debye):
    X=             -1.2071    Y=              1.8018    Z=              0.2777  Tot=              2.1865
 Quadrupole moment (field-independent basis, Debye-Ang):
   XX=            -96.5064   YY=            -92.9762   ZZ=           -110.2393
   XY=             -0.3763   XZ=              0.9337   YZ=              0.6061

 Normal termination of Gaussian 16 at Mon Nov  1 12:15:58 2021.
