 Gaussian 16, Revision C.01,
 Gaussian 16:  ES64L-G16RevC.01  3-Jul-2019

 -----------------
 # mp2/aug-cc-pvdz
 -----------------

 ---------------
 pgT2_TT_-85.pdb
 ---------------
 Symbolic Z-matrix:
 Charge =  0 Multiplicity = 1

                         Standard orientation:
 ---------------------------------------------------------------------
 Center     Atomic      Atomic             Coordinates (Angstroms)
 Number     Number       Type             X           Y           Z
 ---------------------------------------------------------------------
      1          6           0        3.799168    0.047418   -0.599048
      2          6           0        2.429225    0.260755   -0.967347
      3          6           0        1.569025   -0.069063    0.019252
      4          6           0        3.948926   -0.424736    0.646441
      5         16           0        2.418760   -0.642639    1.423944
      6          1           0        4.868838   -0.669526    1.154320
      7          6           0        0.099017    0.010941   -0.010359
      8         16           0       -0.721378    1.517097    0.374147
      9          6           0       -2.271169    0.769078    0.136421
     10          6           0       -2.130822   -0.537513   -0.216316
     11          6           0       -0.770715   -0.986544   -0.290343
     12          1           0       -0.460454   -1.984093   -0.540012
     13         16           0       -3.680613   -1.285532   -0.454043
     14          6           0       -4.481003    0.210727   -0.079629
     15          6           0       -3.631276    1.218109    0.210447
     16          1           0       -5.561008    0.260710   -0.099428
     17          1           0       -3.941539    2.215561    0.470116
     18          1           0        2.109410    0.640146   -1.933773
     19          8           0        4.849339    0.305713   -1.426287
     20          1           0        4.559486    0.673646   -2.242810
 ---------------------------------------------------------------------

 SCF Done:  E(RHF) =  -1649.64118046     A.U. after   17 cycles
 E2 =    -0.1966841124D+01 EUMP2 =    -0.16516080215857D+04

 The electronic state is 1-A.
 Alpha  occ. eigenvalues --  -91.99400 -91.99369 -91.98899 -20.60541 -11.31208
 Alpha  occ. eigenvalues --  -11.29318 -11.29232 -11.28147 -11.27665 -11.27480
 Alpha  occ. eigenvalues --  -11.26343 -11.26070 -11.25662 -11.25576  -8.99566
 Alpha  occ. eigenvalues --   -8.99557  -8.99088  -6.67733  -6.67720  -6.67655
 Alpha  occ. eigenvalues --   -6.67639  -6.67447  -6.67430  -6.67253  -6.67163
 Alpha  occ. eigenvalues --   -6.66963  -1.42083  -1.22244  -1.18766  -1.13275
 Alpha  occ. eigenvalues --   -1.03078  -1.02675  -0.99064  -0.96108  -0.95034
 Alpha  occ. eigenvalues --   -0.84067  -0.78317  -0.77874  -0.74788  -0.72588
 Alpha  occ. eigenvalues --   -0.72250  -0.67556  -0.66074  -0.60934  -0.60414
 Alpha  occ. eigenvalues --   -0.58287  -0.57509  -0.56745  -0.54829  -0.54296
 Alpha  occ. eigenvalues --   -0.52539  -0.51009  -0.49421  -0.48730  -0.46664
 Alpha  occ. eigenvalues --   -0.46529  -0.39173  -0.35098  -0.32735  -0.32087
 Alpha  occ. eigenvalues --   -0.31024
 Alpha virt. eigenvalues --    0.03084   0.03377   0.04476   0.04714   0.04766
 Alpha virt. eigenvalues --    0.06254   0.07701   0.08237   0.08430   0.08673
 Alpha virt. eigenvalues --    0.09417   0.09874   0.10343   0.10825   0.11435

 Mulliken charges:
               1
     1  C    0.621245
     2  C    0.161143
     3  C    0.379953
     4  C    0.042356
     5  S    0.405869
     6  H   -0.337293
     7  C    0.393443
     8  S    0.403482
     9  C   -0.747914
    10  C   -0.282919
    11  C    0.121481
    12  H   -0.435268
    13  S    0.656692
    14  C   -0.085721
    15  C    0.627067
    16  H   -0.367429
    17  H   -0.323058
    18  H   -0.508681
    19  O   -0.851755
    20  H    0.127307
 Sum of Mulliken charges =  -0.00000

 Dipole moment (field-independent basis, Debye):
    X=             -1.1700    Y=              0.6910    Z=             -1.6132  Tot=              2.1092
 Quadrupole moment (field-independent basis, Debye-Ang):
   XX=            -96.9898   YY=           -101.8931   ZZ=           -100.9581
   XY=             -2.7556   XZ=             -4.0454   YZ=             -1.6450

 Normal termination of Gaussian 16 at Mon Nov  1 12:07:25 2021.
