 Gaussian 16, Revision C.01,
 Gaussian 16:  ES64L-G16RevC.01  3-Jul-2019

 -----------------
 # mp2/aug-cc-pvdz
 -----------------

 ----------------
 pgT2_TT_-130.pdb
 ----------------
 Symbolic Z-matrix:
 Charge =  0 Multiplicity = 1

                         Standard orientation:
 ---------------------------------------------------------------------
 Center     Atomic      Atomic             Coordinates (Angstroms)
 Number     Number       Type             X           Y           Z
 ---------------------------------------------------------------------
      1          6           0       -3.758943    0.701191   -0.240463
      2          6           0       -2.368768    0.970111   -0.450693
      3          6           0       -1.569351    0.000551    0.041125
      4          6           0       -3.989652   -0.467597    0.391525
      5         16           0       -2.500129   -1.267703    0.773167
      6          1           0       -4.939920   -0.896639    0.662107
      7          6           0       -0.099362   -0.030257    0.011429
      8         16           0        0.760006   -1.451703   -0.565961
      9          6           0        2.290368   -0.662040   -0.307069
     10          6           0        2.110933    0.598900    0.180715
     11          6           0        0.741091    0.969934    0.369839
     12          1           0        0.401507    1.910800    0.768150
     13         16           0        3.641295    1.388563    0.439607
     14          6           0        4.490660   -0.032843   -0.117785
     15          6           0        3.660201   -1.043039   -0.476175
     16          1           0        5.560665   -0.033446   -0.147601
     17          1           0        3.999775   -1.993854   -0.844469
     18          1           0       -1.998232    1.839018   -0.972137
     19          8           0       -4.758453    1.521010   -0.642056
     20          1           0       -4.417990    2.270054   -1.093297
 ---------------------------------------------------------------------

 SCF Done:  E(RHF) =  -1649.64265221     A.U. after   17 cycles
 E2 =    -0.1968209734D+01 EUMP2 =    -0.16516108619430D+04

 The electronic state is 1-A.
 Alpha  occ. eigenvalues --  -91.99515 -91.99462 -91.98927 -20.60683 -11.31333
 Alpha  occ. eigenvalues --  -11.29551 -11.29399 -11.28224 -11.27804 -11.27659
 Alpha  occ. eigenvalues --  -11.26391 -11.26205 -11.25670 -11.25388  -8.99669
 Alpha  occ. eigenvalues --   -8.99626  -8.99130  -6.67831  -6.67792  -6.67751
 Alpha  occ. eigenvalues --   -6.67714  -6.67542  -6.67509  -6.67298  -6.67208
 Alpha  occ. eigenvalues --   -6.67008  -1.42630  -1.22187  -1.18783  -1.13159
 Alpha  occ. eigenvalues --   -1.03179  -1.02617  -0.99176  -0.96121  -0.94999
 Alpha  occ. eigenvalues --   -0.84269  -0.78784  -0.77908  -0.74697  -0.72925
 Alpha  occ. eigenvalues --   -0.72219  -0.67691  -0.66223  -0.61215  -0.60660
 Alpha  occ. eigenvalues --   -0.58294  -0.57462  -0.56454  -0.55051  -0.54056
 Alpha  occ. eigenvalues --   -0.52725  -0.51130  -0.50001  -0.48467  -0.46836
 Alpha  occ. eigenvalues --   -0.46528  -0.39336  -0.35630  -0.33129  -0.32717
 Alpha  occ. eigenvalues --   -0.29380
 Alpha virt. eigenvalues --    0.02944   0.03379   0.04510   0.04768   0.04824
 Alpha virt. eigenvalues --    0.05915   0.07204   0.08227   0.08266   0.09225
 Alpha virt. eigenvalues --    0.09435   0.10284   0.10628   0.10885   0.11477

 Mulliken charges:
               1
     1  C    0.474038
     2  C    0.228224
     3  C    0.492847
     4  C    0.048278
     5  S    0.476911
     6  H   -0.345215
     7  C    0.302928
     8  S    0.399413
     9  C   -0.767236
    10  C   -0.111441
    11  C    0.115541
    12  H   -0.435361
    13  S    0.608272
    14  C   -0.045560
    15  C    0.531284
    16  H   -0.391931
    17  H   -0.321980
    18  H   -0.545571
    19  O   -0.839975
    20  H    0.126535
 Sum of Mulliken charges =  -0.00000

 Dipole moment (field-independent basis, Debye):
    X=              1.2435    Y=              1.4373    Z=             -0.9111  Tot=              2.1077
 Quadrupole moment (field-independent basis, Debye-Ang):
   XX=            -96.8116   YY=            -96.1013   ZZ=           -106.9627
   XY=             -6.5551   XZ=             -0.1433   YZ=             -1.8255

 Normal termination of Gaussian 16 at Mon Nov  1 12:01:22 2021.
