 Gaussian 16, Revision C.01,
 Gaussian 16:  ES64L-G16RevC.01  3-Jul-2019

 -----------------
 # mp2/aug-cc-pvdz
 -----------------

 --------------
 pgT2_TT_90.pdb
 --------------
 Symbolic Z-matrix:
 Charge =  0 Multiplicity = 1

                         Standard orientation:
 ---------------------------------------------------------------------
 Center     Atomic      Atomic             Coordinates (Angstroms)
 Number     Number       Type             X           Y           Z
 ---------------------------------------------------------------------
      1          6           0       -3.799105   -0.198139   -0.598663
      2          6           0       -2.419059   -0.157572   -0.998447
      3          6           0       -1.569185   -0.058958    0.051786
      4          6           0       -3.959264   -0.129937    0.741411
      5         16           0       -2.429362   -0.010987    1.551751
      6          1           0       -4.879329   -0.140695    1.291289
      7          6           0       -0.089181    0.011143    0.002054
      8         16           0        0.720797    1.561321   -0.115776
      9          6           0        2.270816    0.771357   -0.116651
     10          6           0        2.130837   -0.588765   -0.028489
     11          6           0        0.770839   -1.028890    0.040762
     12          1           0        0.450853   -2.059004    0.119345
     13         16           0        3.680855   -1.378729   -0.029365
     14          6           0        4.480833    0.161449   -0.147209
     15          6           0        3.630814    1.211482   -0.185902
     16          1           0        5.560836    0.201514   -0.177028
     17          1           0        3.950798    2.241582   -0.254486
     18          1           0       -2.088938   -0.196185   -2.028461
     19          8           0       -4.839002   -0.307012   -1.458931
     20          1           0       -4.528898   -0.295813   -2.348881
 ---------------------------------------------------------------------

 SCF Done:  E(RHF) =  -1649.64120640     A.U. after   17 cycles
 E2 =    -0.1968675102D+01 EUMP2 =    -0.16516098814992D+04

 The electronic state is 1-A.
 Alpha  occ. eigenvalues --  -91.99507 -91.99449 -91.98910 -20.60765 -11.31341
 Alpha  occ. eigenvalues --  -11.29319 -11.29248 -11.28142 -11.27765 -11.27592
 Alpha  occ. eigenvalues --  -11.26348 -11.26108 -11.25648 -11.25549  -8.99658
 Alpha  occ. eigenvalues --   -8.99628  -8.99097  -6.67819  -6.67794  -6.67739
 Alpha  occ. eigenvalues --   -6.67716  -6.67530  -6.67510  -6.67264  -6.67173
 Alpha  occ. eigenvalues --   -6.66976  -1.42549  -1.22122  -1.18536  -1.13203
 Alpha  occ. eigenvalues --   -1.03015  -1.02438  -0.98977  -0.96007  -0.95101
 Alpha  occ. eigenvalues --   -0.83891  -0.78469  -0.77704  -0.74787  -0.72502
 Alpha  occ. eigenvalues --   -0.72266  -0.67457  -0.66025  -0.61044  -0.60569
 Alpha  occ. eigenvalues --   -0.58258  -0.57547  -0.56628  -0.54868  -0.54155
 Alpha  occ. eigenvalues --   -0.52358  -0.50984  -0.49440  -0.48717  -0.46734
 Alpha  occ. eigenvalues --   -0.46660  -0.39228  -0.34923  -0.32690  -0.31969
 Alpha  occ. eigenvalues --   -0.30932
 Alpha virt. eigenvalues --    0.03064   0.03379   0.04508   0.04693   0.04768
 Alpha virt. eigenvalues --    0.06215   0.07780   0.08207   0.08398   0.08650
 Alpha virt. eigenvalues --    0.09376   0.09890   0.10353   0.10788   0.11425

 Mulliken charges:
               1
     1  C    0.583443
     2  C    0.187414
     3  C    0.365941
     4  C    0.069786
     5  S    0.405200
     6  H   -0.352230
     7  C    0.415918
     8  S    0.396626
     9  C   -0.763610
    10  C   -0.267714
    11  C    0.084404
    12  H   -0.415293
    13  S    0.657939
    14  C   -0.082178
    15  C    0.644588
    16  H   -0.370951
    17  H   -0.318340
    18  H   -0.523507
    19  O   -0.846360
    20  H    0.128926
 Sum of Mulliken charges =  -0.00000

 Dipole moment (field-independent basis, Debye):
    X=              1.1739    Y=              0.0156    Z=             -1.7774  Tot=              2.1302
 Quadrupole moment (field-independent basis, Debye-Ang):
   XX=            -97.1072   YY=           -102.7371   ZZ=           -100.1088
   XY=              4.0661   XZ=              3.0619   YZ=             -0.0781

 Normal termination of Gaussian 16 at Mon Nov  1 12:18:30 2021.
