 Gaussian 16, Revision C.01,
 Gaussian 16:  ES64L-G16RevC.01  3-Jul-2019

 -----------------
 # mp2/aug-cc-pvdz
 -----------------

 ---------------
 pgT2_TT_-40.pdb
 ---------------
 Symbolic Z-matrix:
 Charge =  0 Multiplicity = 1

                         Standard orientation:
 ---------------------------------------------------------------------
 Center     Atomic      Atomic             Coordinates (Angstroms)
 Number     Number       Type             X           Y           Z
 ---------------------------------------------------------------------
      1          6           0       -3.820194    0.381488    0.280689
      2          6           0       -2.459791    0.830340    0.410444
      3          6           0       -1.560660   -0.100343   -0.009903
      4          6           0       -3.921346   -0.868353   -0.219477
      5         16           0       -2.361975   -1.529594   -0.569934
      6          1           0       -4.821844   -1.417579   -0.399353
      7          6           0       -0.100567    0.008444   -0.000222
      8         16           0        0.680583    1.517864   -0.450173
      9          6           0        2.250061    0.816523   -0.190639
     10          6           0        2.139061   -0.493443    0.189189
     11          6           0        0.798697   -0.962348    0.299426
     12          1           0        0.507936   -1.962152    0.599342
     13         16           0        3.708537   -1.194783    0.438723
     14          6           0        4.469693    0.314649    0.018776
     15          6           0        3.600425    1.285419   -0.300879
     16          1           0        5.549751    0.383753    0.018538
     17          1           0        3.881190    2.285228   -0.580792
     18          1           0       -2.178903    1.790047    0.810524
     19          8           0       -4.889499    1.122323    0.631046
     20          1           0       -4.628723    1.972060    0.941114
 ---------------------------------------------------------------------

 SCF Done:  E(RHF) =  -1649.64362365     A.U. after   17 cycles
 E2 =    -0.1968224711D+01 EUMP2 =    -0.16516118483636D+04

 The electronic state is 1-A.
 Alpha  occ. eigenvalues --  -91.99649 -91.99400 -91.99019 -20.60751 -11.31415
 Alpha  occ. eigenvalues --  -11.29564 -11.29483 -11.28118 -11.27832 -11.27660
 Alpha  occ. eigenvalues --  -11.26320 -11.26070 -11.25510 -11.25379  -8.99812
 Alpha  occ. eigenvalues --   -8.99590  -8.99230  -6.67977  -6.67899  -6.67756
 Alpha  occ. eigenvalues --   -6.67688  -6.67678  -6.67470  -6.67401  -6.67311
 Alpha  occ. eigenvalues --   -6.67109  -1.42838  -1.22334  -1.18691  -1.13349
 Alpha  occ. eigenvalues --   -1.03138  -1.02898  -0.99241  -0.96013  -0.95081
 Alpha  occ. eigenvalues --   -0.84370  -0.78797  -0.77920  -0.75135  -0.72930
 Alpha  occ. eigenvalues --   -0.71647  -0.67532  -0.66207  -0.61206  -0.60762
 Alpha  occ. eigenvalues --   -0.58641  -0.57612  -0.56873  -0.54641  -0.53866
 Alpha  occ. eigenvalues --   -0.52911  -0.51410  -0.50185  -0.48247  -0.46965
 Alpha  occ. eigenvalues --   -0.46596  -0.39572  -0.35801  -0.33239  -0.32755
 Alpha  occ. eigenvalues --   -0.28864
 Alpha virt. eigenvalues --    0.03126   0.03361   0.04360   0.04726   0.04953
 Alpha virt. eigenvalues --    0.06110   0.06633   0.08309   0.08384   0.09306
 Alpha virt. eigenvalues --    0.09549   0.10491   0.10632   0.10830   0.11701

 Mulliken charges:
               1
     1  C    0.445449
     2  C    0.211592
     3  C    0.543710
     4  C    0.129233
     5  S    0.462159
     6  H   -0.377108
     7  C    0.325142
     8  S    0.423701
     9  C   -0.727624
    10  C   -0.166243
    11  C    0.212469
    12  H   -0.462181
    13  S    0.588882
    14  C   -0.139686
    15  C    0.525659
    16  H   -0.367015
    17  H   -0.322087
    18  H   -0.593518
    19  O   -0.846207
    20  H    0.133672
 Sum of Mulliken charges =  -0.00000

 Dipole moment (field-independent basis, Debye):
    X=              1.1207    Y=              1.7238    Z=              0.6712  Tot=              2.1628
 Quadrupole moment (field-independent basis, Debye-Ang):
   XX=            -96.2818   YY=            -94.6403   ZZ=           -108.4390
   XY=              0.4229   XZ=             -2.5188   YZ=              1.4625

 Normal termination of Gaussian 16 at Mon Nov  1 12:08:52 2021.
