 Gaussian 16, Revision C.01,
 Gaussian 16:  ES64L-G16RevC.01  3-Jul-2019

 -----------------
 # mp2/aug-cc-pvdz
 -----------------

 ---------------
 pgT2_TT_-80.pdb
 ---------------
 Symbolic Z-matrix:
 Charge =  0 Multiplicity = 1

                         Standard orientation:
 ---------------------------------------------------------------------
 Center     Atomic      Atomic             Coordinates (Angstroms)
 Number     Number       Type             X           Y           Z
 ---------------------------------------------------------------------
      1          6           0       -3.810220    0.182845    0.559087
      2          6           0       -2.440117    0.472519    0.878943
      3          6           0       -1.570277   -0.068779   -0.010425
      4          6           0       -3.940460   -0.578202   -0.550167
      5         16           0       -2.400561   -0.949626   -1.249634
      6          1           0       -4.860577   -0.928218   -0.999915
      7          6           0       -0.100238    0.020559    0.019641
      8         16           0        0.720502    1.459582   -0.571710
      9          6           0        2.270137    0.759183   -0.240846
     10          6           0        2.129489   -0.500231    0.280397
     11          6           0        0.769272   -0.929451    0.420682
     12          1           0        0.458780   -1.888925    0.801608
     13         16           0        3.679120   -1.210631    0.611271
     14          6           0        4.479857    0.228432    0.049918
     15          6           0        3.630354    1.188412   -0.371131
     16          1           0        5.559879    0.277933    0.059982
     17          1           0        3.940846    2.147886   -0.752057
     18          1           0       -2.129934    1.053222    1.728396
     19          8           0       -4.860104    0.594068    1.288565
     20          1           0       -4.579920    1.144645    1.998045
 ---------------------------------------------------------------------

 SCF Done:  E(RHF) =  -1649.64132451     A.U. after   17 cycles
 E2 =    -0.1967951780D+01 EUMP2 =    -0.16516092762916D+04

 The electronic state is 1-A.
 Alpha  occ. eigenvalues --  -91.99391 -91.99378 -91.98944 -20.60790 -11.31298
 Alpha  occ. eigenvalues --  -11.29282 -11.29200 -11.28138 -11.27704 -11.27537
 Alpha  occ. eigenvalues --  -11.26275 -11.26076 -11.25612 -11.25447  -8.99567
 Alpha  occ. eigenvalues --   -8.99552  -8.99128  -6.67733  -6.67715  -6.67655
 Alpha  occ. eigenvalues --   -6.67635  -6.67449  -6.67426  -6.67294  -6.67203
 Alpha  occ. eigenvalues --   -6.67006  -1.43082  -1.22144  -1.18544  -1.13211
 Alpha  occ. eigenvalues --   -1.03061  -1.02502  -0.99088  -0.96062  -0.94936
 Alpha  occ. eigenvalues --   -0.84129  -0.78623  -0.77766  -0.74883  -0.72675
 Alpha  occ. eigenvalues --   -0.72218  -0.67465  -0.66151  -0.61112  -0.60855
 Alpha  occ. eigenvalues --   -0.58341  -0.57592  -0.56650  -0.54787  -0.54161
 Alpha  occ. eigenvalues --   -0.52503  -0.50965  -0.49398  -0.48748  -0.46656
 Alpha  occ. eigenvalues --   -0.46485  -0.39268  -0.34960  -0.32647  -0.31953
 Alpha  occ. eigenvalues --   -0.30735
 Alpha virt. eigenvalues --    0.03064   0.03388   0.04472   0.04752   0.04767
 Alpha virt. eigenvalues --    0.06272   0.07605   0.08268   0.08355   0.08716
 Alpha virt. eigenvalues --    0.09476   0.09860   0.10367   0.10860   0.11402

 Mulliken charges:
               1
     1  C    0.581988
     2  C    0.249213
     3  C    0.341711
     4  C    0.045013
     5  S    0.401622
     6  H   -0.338987
     7  C    0.410530
     8  S    0.422896
     9  C   -0.765070
    10  C   -0.300580
    11  C    0.115138
    12  H   -0.432603
    13  S    0.651833
    14  C   -0.085952
    15  C    0.638210
    16  H   -0.368002
    17  H   -0.320649
    18  H   -0.541609
    19  O   -0.835320
    20  H    0.130620
 Sum of Mulliken charges =  -0.00000

 Dipole moment (field-independent basis, Debye):
    X=              1.0594    Y=              1.0862    Z=              1.4711  Tot=              2.1134
 Quadrupole moment (field-independent basis, Debye-Ang):
   XX=            -96.4082   YY=           -100.6043   ZZ=           -102.2659
   XY=              1.5284   XZ=             -4.5795   YZ=              2.2148

 Normal termination of Gaussian 16 at Mon Nov  1 12:07:25 2021.
