 Gaussian 16, Revision C.01,
 Gaussian 16:  ES64L-G16RevC.01  3-Jul-2019

 -----------------
 # mp2/aug-cc-pvdz
 -----------------

 ----------------
 pgT2_TT_-115.pdb
 ----------------
 Symbolic Z-matrix:
 Charge =  0 Multiplicity = 1

                         Standard orientation:
 ---------------------------------------------------------------------
 Center     Atomic      Atomic             Coordinates (Angstroms)
 Number     Number       Type             X           Y           Z
 ---------------------------------------------------------------------
      1          6           0       -3.770967    0.640804   -0.321364
      2          6           0       -2.370738    0.890028   -0.570852
      3          6           0       -1.571430    0.010219    0.080259
      4          6           0       -3.981811   -0.408462    0.489368
      5         16           0       -2.492366   -1.138674    0.990710
      6          1           0       -4.932139   -0.797807    0.819197
      7          6           0       -0.101422   -0.030425    0.031038
      8         16           0        0.748375   -1.401342   -0.677434
      9          6           0        2.278530   -0.641724   -0.367263
     10          6           0        2.118732    0.578813    0.221680
     11          6           0        0.748764    0.939561    0.450695
     12          1           0        0.428895    1.850076    0.929804
     13         16           0        3.658888    1.328420    0.521863
     14          6           0        4.488675   -0.042473   -0.166619
     15          6           0        3.648494   -1.012471   -0.596270
     16          1           0        5.558691   -0.052945   -0.206067
     17          1           0        3.978344   -1.932966   -1.045367
     18          1           0       -2.000086    1.669356   -1.221287
     19          8           0       -4.770398    1.380799   -0.842464
     20          1           0       -4.429834    2.060211   -1.402834
 ---------------------------------------------------------------------

 SCF Done:  E(RHF) =  -1649.64195622     A.U. after   17 cycles
 E2 =    -0.1967934272D+01 EUMP2 =    -0.16516098904890D+04

 The electronic state is 1-A.
 Alpha  occ. eigenvalues --  -91.99480 -91.99410 -91.98904 -20.60779 -11.31295
 Alpha  occ. eigenvalues --  -11.29468 -11.29331 -11.28140 -11.27744 -11.27583
 Alpha  occ. eigenvalues --  -11.26436 -11.26164 -11.25577 -11.25530  -8.99630
 Alpha  occ. eigenvalues --   -8.99584  -8.99108  -6.67792  -6.67751  -6.67711
 Alpha  occ. eigenvalues --   -6.67673  -6.67502  -6.67467  -6.67277  -6.67185
 Alpha  occ. eigenvalues --   -6.66984  -1.42741  -1.22075  -1.18614  -1.13077
 Alpha  occ. eigenvalues --   -1.03108  -1.02560  -0.98964  -0.96109  -0.94945
 Alpha  occ. eigenvalues --   -0.84179  -0.78673  -0.77797  -0.74583  -0.72703
 Alpha  occ. eigenvalues --   -0.72275  -0.67560  -0.66172  -0.61225  -0.60720
 Alpha  occ. eigenvalues --   -0.58233  -0.57398  -0.56527  -0.54805  -0.54173
 Alpha  occ. eigenvalues --   -0.52520  -0.51009  -0.49678  -0.48664  -0.46704
 Alpha  occ. eigenvalues --   -0.46600  -0.39187  -0.35247  -0.32826  -0.32565
 Alpha  occ. eigenvalues --   -0.30024
 Alpha virt. eigenvalues --    0.02977   0.03387   0.04547   0.04705   0.04796
 Alpha virt. eigenvalues --    0.06018   0.07687   0.08178   0.08218   0.08978
 Alpha virt. eigenvalues --    0.09453   0.10242   0.10417   0.10804   0.11464

 Mulliken charges:
               1
     1  C    0.534986
     2  C    0.158787
     3  C    0.502696
     4  C    0.065151
     5  S    0.438843
     6  H   -0.347297
     7  C    0.360217
     8  S    0.392589
     9  C   -0.758778
    10  C   -0.174531
    11  C    0.062986
    12  H   -0.428597
    13  S    0.648867
    14  C   -0.044222
    15  C    0.548358
    16  H   -0.387481
    17  H   -0.324659
    18  H   -0.535657
    19  O   -0.847129
    20  H    0.134872
 Sum of Mulliken charges =  -0.00000

 Dipole moment (field-independent basis, Debye):
    X=              1.1889    Y=              1.3092    Z=             -1.1714  Tot=              2.1212
 Quadrupole moment (field-independent basis, Debye-Ang):
   XX=            -96.9203   YY=            -97.9235   ZZ=           -104.9855
   XY=             -6.2700   XZ=             -0.0062   YZ=             -2.0012

 Normal termination of Gaussian 16 at Mon Nov  1 12:01:46 2021.
