 Gaussian 16, Revision C.01,
 Gaussian 16:  ES64L-G16RevC.01  3-Jul-2019

 -----------------
 # mp2/aug-cc-pvdz
 -----------------

 --------------
 pgT2_TT_95.pdb
 --------------
 Symbolic Z-matrix:
 Charge =  0 Multiplicity = 1

                         Standard orientation:
 ---------------------------------------------------------------------
 Center     Atomic      Atomic             Coordinates (Angstroms)
 Number     Number       Type             X           Y           Z
 ---------------------------------------------------------------------
      1          6           0       -3.789789   -0.404938   -0.503127
      2          6           0       -2.409853   -0.513909   -0.883655
      3          6           0       -1.569541   -0.039693    0.068970
      4          6           0       -3.969438    0.138631    0.709827
      5         16           0       -2.449168    0.543532    1.442108
      6          1           0       -4.899321    0.326560    1.220807
      7          6           0       -0.089502    0.009525    0.009310
      8         16           0        0.731617    1.471816   -0.522733
      9          6           0        2.271030    0.699538   -0.316839
     10          6           0        2.130050   -0.582831    0.136211
     11          6           0        0.769742   -0.982838    0.323979
     12          1           0        0.449000   -1.954481    0.668702
     13         16           0        3.669471   -1.345110    0.342160
     14          6           0        4.490581    0.107128   -0.179937
     15          6           0        3.641345    1.109483   -0.494552
     16          1           0        5.560599    0.126598   -0.229779
     17          1           0        3.952080    2.071133   -0.839330
     18          1           0       -2.070113   -0.919063   -1.825848
     19          8           0       -4.820057   -0.809934   -1.285385
     20          1           0       -4.510262   -1.135663   -2.117147
 ---------------------------------------------------------------------

 SCF Done:  E(RHF) =  -1649.64108313     A.U. after   17 cycles
 E2 =    -0.1967367542D+01 EUMP2 =    -0.16516084506712D+04

 The electronic state is 1-A.
 Alpha  occ. eigenvalues --  -91.99474 -91.99356 -91.98873 -20.60624 -11.31196
 Alpha  occ. eigenvalues --  -11.29385 -11.29312 -11.28141 -11.27730 -11.27509
 Alpha  occ. eigenvalues --  -11.26362 -11.26100 -11.25609 -11.25529  -8.99627
 Alpha  occ. eigenvalues --   -8.99544  -8.99063  -6.67788  -6.67712  -6.67708
 Alpha  occ. eigenvalues --   -6.67633  -6.67499  -6.67426  -6.67229  -6.67139
 Alpha  occ. eigenvalues --   -6.66940  -1.42287  -1.22132  -1.18597  -1.13155
 Alpha  occ. eigenvalues --   -1.03059  -1.02596  -0.98953  -0.96215  -0.94919
 Alpha  occ. eigenvalues --   -0.83985  -0.78422  -0.77866  -0.74780  -0.72522
 Alpha  occ. eigenvalues --   -0.72380  -0.67584  -0.66066  -0.61052  -0.60521
 Alpha  occ. eigenvalues --   -0.58321  -0.57410  -0.56669  -0.54850  -0.54294
 Alpha  occ. eigenvalues --   -0.52491  -0.50938  -0.49367  -0.48663  -0.46666
 Alpha  occ. eigenvalues --   -0.46592  -0.39258  -0.34928  -0.32564  -0.32167
 Alpha  occ. eigenvalues --   -0.31011
 Alpha virt. eigenvalues --    0.03049   0.03378   0.04528   0.04668   0.04769
 Alpha virt. eigenvalues --    0.06188   0.07861   0.08198   0.08377   0.08681
 Alpha virt. eigenvalues --    0.09374   0.09939   0.10376   0.10784   0.11437

 Mulliken charges:
               1
     1  C    0.626647
     2  C    0.172988
     3  C    0.368246
     4  C    0.025382
     5  S    0.415783
     6  H   -0.337428
     7  C    0.397015
     8  S    0.396146
     9  C   -0.812119
    10  C   -0.245888
    11  C    0.103164
    12  H   -0.417218
    13  S    0.666256
    14  C   -0.063963
    15  C    0.679558
    16  H   -0.383609
    17  H   -0.344533
    18  H   -0.523720
    19  O   -0.856138
    20  H    0.133432
 Sum of Mulliken charges =  -0.00000

 Dipole moment (field-independent basis, Debye):
    X=              1.1773    Y=             -0.6284    Z=             -1.6795  Tot=              2.1452
 Quadrupole moment (field-independent basis, Debye-Ang):
   XX=            -97.0320   YY=           -101.9160   ZZ=           -100.9141
   XY=              5.2227   XZ=              1.4500   YZ=              1.4187

 Normal termination of Gaussian 16 at Mon Nov  1 12:19:18 2021.
