 Gaussian 16, Revision C.01,
 Gaussian 16:  ES64L-G16RevC.01  3-Jul-2019

 -----------------
 # mp2/aug-cc-pvdz
 -----------------

 --------------
 pgT2_TT_85.pdb
 --------------
 Symbolic Z-matrix:
 Charge =  0 Multiplicity = 1

                         Standard orientation:
 ---------------------------------------------------------------------
 Center     Atomic      Atomic             Coordinates (Angstroms)
 Number     Number       Type             X           Y           Z
 ---------------------------------------------------------------------
      1          6           0       -3.798815    0.051587   -0.600348
      2          6           0       -2.428697    0.252484   -0.969422
      3          6           0       -1.569021   -0.069771    0.020128
      4          6           0       -3.949222   -0.421301    0.648514
      5         16           0       -2.419479   -0.633050    1.428545
      6          1           0       -4.869387   -0.662507    1.157647
      7          6           0       -0.099014    0.010346   -0.009190
      8         16           0        0.720811    1.519515    0.364570
      9          6           0        2.270914    0.770098    0.133365
     10          6           0        2.131072   -0.539119   -0.209704
     11          6           0        0.771111   -0.989000   -0.281202
     12          1           0        0.461229   -1.988431   -0.533613
     13         16           0        3.681178   -1.288513   -0.450909
     14          6           0        4.481003    0.210656   -0.077179
     15          6           0        3.630875    1.219979    0.204863
     16          1           0        5.561008    0.260737   -0.096698
     17          1           0        3.940757    2.219410    0.457274
     18          1           0       -2.108384    0.624708   -1.928457
     19          8           0       -4.848542    0.293467   -1.430147
     20          1           0       -4.558277    0.655367   -2.249216
 ---------------------------------------------------------------------

 SCF Done:  E(RHF) =  -1649.64128832     A.U. after   17 cycles
 E2 =    -0.1967002907D+01 EUMP2 =    -0.16516082912268D+04

 The electronic state is 1-A.
 Alpha  occ. eigenvalues --  -91.99404 -91.99378 -91.98899 -20.60583 -11.31225
 Alpha  occ. eigenvalues --  -11.29312 -11.29217 -11.28164 -11.27670 -11.27488
 Alpha  occ. eigenvalues --  -11.26361 -11.26080 -11.25676 -11.25466  -8.99567
 Alpha  occ. eigenvalues --   -8.99561  -8.99085  -6.67733  -6.67723  -6.67655
 Alpha  occ. eigenvalues --   -6.67643  -6.67448  -6.67434  -6.67250  -6.67160
 Alpha  occ. eigenvalues --   -6.66961  -1.42190  -1.22223  -1.18734  -1.13242
 Alpha  occ. eigenvalues --   -1.03047  -1.02648  -0.99118  -0.96076  -0.95014
 Alpha  occ. eigenvalues --   -0.84067  -0.78351  -0.77871  -0.74808  -0.72643
 Alpha  occ. eigenvalues --   -0.72276  -0.67537  -0.66084  -0.60995  -0.60453
 Alpha  occ. eigenvalues --   -0.58293  -0.57496  -0.56720  -0.54852  -0.54269
 Alpha  occ. eigenvalues --   -0.52545  -0.50994  -0.49407  -0.48743  -0.46639
 Alpha  occ. eigenvalues --   -0.46547  -0.39172  -0.35097  -0.32726  -0.32026
 Alpha  occ. eigenvalues --   -0.31017
 Alpha virt. eigenvalues --    0.03078   0.03377   0.04479   0.04714   0.04765
 Alpha virt. eigenvalues --    0.06250   0.07701   0.08232   0.08424   0.08668
 Alpha virt. eigenvalues --    0.09415   0.09881   0.10339   0.10834   0.11423

 Mulliken charges:
               1
     1  C    0.605349
     2  C    0.221283
     3  C    0.353329
     4  C    0.040914
     5  S    0.406317
     6  H   -0.337781
     7  C    0.400957
     8  S    0.403803
     9  C   -0.744820
    10  C   -0.273429
    11  C    0.100585
    12  H   -0.430977
    13  S    0.650941
    14  C   -0.081941
    15  C    0.626758
    16  H   -0.368078
    17  H   -0.322759
    18  H   -0.528594
    19  O   -0.849423
    20  H    0.127566
 Sum of Mulliken charges =  -0.00000

 Dipole moment (field-independent basis, Debye):
    X=              1.1633    Y=              0.6939    Z=             -1.6362  Tot=              2.1241
 Quadrupole moment (field-independent basis, Debye-Ang):
   XX=            -96.9615   YY=           -101.9106   ZZ=           -100.9272
   XY=              2.7609   XZ=              4.0717   YZ=             -1.6186

 Normal termination of Gaussian 16 at Mon Nov  1 12:18:11 2021.
