 Gaussian 16, Revision C.01,
 Gaussian 16:  ES64L-G16RevC.01  3-Jul-2019

 -----------------
 # mp2/aug-cc-pvdz
 -----------------

 ---------------
 pgT2_TT_110.pdb
 ---------------
 Symbolic Z-matrix:
 Charge =  0 Multiplicity = 1

                         Standard orientation:
 ---------------------------------------------------------------------
 Center     Atomic      Atomic             Coordinates (Angstroms)
 Number     Number       Type             X           Y           Z
 ---------------------------------------------------------------------
      1          6           0        3.770595    0.609918   -0.351363
      2          6           0        2.380626    0.840351   -0.621152
      3          6           0        1.570501    0.020128    0.078441
      4          6           0        3.980447   -0.380620    0.538073
      5         16           0        2.480338   -1.070614    1.077780
      6          1           0        4.930393   -0.751014    0.897810
      7          6           0        0.090490   -0.019543    0.028508
      8         16           0       -0.739834   -1.388967   -0.702203
      9          6           0       -2.279662   -0.638825   -0.391693
     10          6           0       -2.119378    0.570797    0.228970
     11          6           0       -0.759290    0.930386    0.469088
     12          1           0       -0.429077    1.830052    0.949568
     13         16           0       -3.659208    1.310939    0.539474
     14          6           0       -4.489529   -0.048491   -0.181232
     15          6           0       -3.639752   -1.008420   -0.621817
     16          1           0       -5.559532   -0.048250   -0.221167
     17          1           0       -3.969966   -1.918085   -1.102303
     18          1           0        2.010735    1.580816   -1.320718
     19          8           0        4.780704    1.310028   -0.921035
     20          1           0        4.440798    1.950437   -1.530658
 ---------------------------------------------------------------------

 SCF Done:  E(RHF) =  -1649.64157970     A.U. after   17 cycles
 E2 =    -0.1968422499D+01 EUMP2 =    -0.16516100022011D+04

 The electronic state is 1-A.
 Alpha  occ. eigenvalues --  -91.99477 -91.99401 -91.98914 -20.60772 -11.31305
 Alpha  occ. eigenvalues --  -11.29424 -11.29326 -11.28199 -11.27759 -11.27595
 Alpha  occ. eigenvalues --  -11.26246 -11.26191 -11.25721 -11.25516  -8.99620
 Alpha  occ. eigenvalues --   -8.99573  -8.99094  -6.67781  -6.67739  -6.67701
 Alpha  occ. eigenvalues --   -6.67661  -6.67492  -6.67457  -6.67260  -6.67170
 Alpha  occ. eigenvalues --   -6.66971  -1.42397  -1.22158  -1.18612  -1.13143
 Alpha  occ. eigenvalues --   -1.03106  -1.02524  -0.99013  -0.96132  -0.94951
 Alpha  occ. eigenvalues --   -0.84024  -0.78462  -0.77836  -0.74775  -0.72657
 Alpha  occ. eigenvalues --   -0.72265  -0.67585  -0.66114  -0.61054  -0.60580
 Alpha  occ. eigenvalues --   -0.58270  -0.57581  -0.56595  -0.54899  -0.54175
 Alpha  occ. eigenvalues --   -0.52448  -0.50907  -0.49587  -0.48623  -0.46672
 Alpha  occ. eigenvalues --   -0.46564  -0.39324  -0.35259  -0.32691  -0.32543
 Alpha  occ. eigenvalues --   -0.30232
 Alpha virt. eigenvalues --    0.02994   0.03383   0.04555   0.04675   0.04786
 Alpha virt. eigenvalues --    0.06072   0.07798   0.08118   0.08200   0.08887
 Alpha virt. eigenvalues --    0.09447   0.10120   0.10427   0.10755   0.11415

 Mulliken charges:
               1
     1  C    0.565170
     2  C    0.175916
     3  C    0.440726
     4  C    0.030684
     5  S    0.431071
     6  H   -0.335044
     7  C    0.336805
     8  S    0.387730
     9  C   -0.761647
    10  C   -0.210663
    11  C    0.156881
    12  H   -0.430731
    13  S    0.639526
    14  C   -0.067822
    15  C    0.588115
    16  H   -0.389362
    17  H   -0.316318
    18  H   -0.523162
    19  O   -0.854536
    20  H    0.136662
 Sum of Mulliken charges =  -0.00000

 Dipole moment (field-independent basis, Debye):
    X=             -1.2129    Y=              1.2450    Z=             -1.2685  Tot=              2.1518
 Quadrupole moment (field-independent basis, Debye-Ang):
   XX=            -97.1627   YY=            -98.7465   ZZ=           -104.1785
   XY=              5.9810   XZ=              0.0020   YZ=             -2.0249

 Normal termination of Gaussian 16 at Mon Nov  1 12:21:52 2021.
