 Gaussian 16, Revision C.01,
 Gaussian 16:  ES64L-G16RevC.01  3-Jul-2019

 -----------------
 # mp2/aug-cc-pvdz
 -----------------

 ---------------
 pgT2_TT_115.pdb
 ---------------
 Symbolic Z-matrix:
 Charge =  0 Multiplicity = 1

                         Standard orientation:
 ---------------------------------------------------------------------
 Center     Atomic      Atomic             Coordinates (Angstroms)
 Number     Number       Type             X           Y           Z
 ---------------------------------------------------------------------
      1          6           0        3.770908    0.640521   -0.322144
      2          6           0        2.370692    0.889610   -0.571841
      3          6           0        1.571346    0.010240    0.079814
      4          6           0        3.981704   -0.408221    0.489278
      5         16           0        2.492228   -1.138078    0.991044
      6          1           0        4.932014   -0.797370    0.819392
      7          6           0        0.101338   -0.030408    0.030570
      8         16           0       -0.748461   -1.401769   -0.677039
      9          6           0       -2.278612   -0.641919   -0.367415
     10          6           0       -2.118811    0.578998    0.220739
     11          6           0       -0.748839    0.939882    0.459566
     12          1           0       -0.418973    1.850692    0.928090
     13         16           0       -3.658963    1.328829    0.520382
     14          6           0       -4.488752   -0.042495   -0.167236
     15          6           0       -3.648576   -1.012789   -0.596228
     16          1           0       -5.558767   -0.052972   -0.206714
     17          1           0       -3.978428   -1.933570   -1.044737
     18          1           0        2.000078    1.668522   -1.222796
     19          8           0        4.770371    1.380158   -0.843691
     20          1           0        4.429839    2.059212   -1.404515
 ---------------------------------------------------------------------

 SCF Done:  E(RHF) =  -1649.64193560     A.U. after   17 cycles
 E2 =    -0.1968162793D+01 EUMP2 =    -0.16516100983958D+04

 The electronic state is 1-A.
 Alpha  occ. eigenvalues --  -91.99495 -91.99396 -91.98903 -20.60780 -11.31296
 Alpha  occ. eigenvalues --  -11.29498 -11.29330 -11.28133 -11.27761 -11.27612
 Alpha  occ. eigenvalues --  -11.26484 -11.26164 -11.25580 -11.25531  -8.99643
 Alpha  occ. eigenvalues --   -8.99572  -8.99107  -6.67805  -6.67739  -6.67724
 Alpha  occ. eigenvalues --   -6.67660  -6.67515  -6.67454  -6.67276  -6.67184
 Alpha  occ. eigenvalues --   -6.66983  -1.42743  -1.22044  -1.18613  -1.13042
 Alpha  occ. eigenvalues --   -1.03108  -1.02547  -0.98964  -0.96092  -0.94940
 Alpha  occ. eigenvalues --   -0.84170  -0.78669  -0.77804  -0.74536  -0.72722
 Alpha  occ. eigenvalues --   -0.72285  -0.67551  -0.66148  -0.61226  -0.60720
 Alpha  occ. eigenvalues --   -0.58248  -0.57370  -0.56521  -0.54846  -0.54185
 Alpha  occ. eigenvalues --   -0.52509  -0.51009  -0.49673  -0.48666  -0.46692
 Alpha  occ. eigenvalues --   -0.46591  -0.39170  -0.35242  -0.32814  -0.32562
 Alpha  occ. eigenvalues --   -0.30022
 Alpha virt. eigenvalues --    0.02975   0.03388   0.04545   0.04706   0.04797
 Alpha virt. eigenvalues --    0.06018   0.07685   0.08171   0.08219   0.08976
 Alpha virt. eigenvalues --    0.09450   0.10238   0.10414   0.10806   0.11462

 Mulliken charges:
               1
     1  C    0.537540
     2  C    0.156055
     3  C    0.498880
     4  C    0.066214
     5  S    0.438208
     6  H   -0.346939
     7  C    0.355381
     8  S    0.389586
     9  C   -0.770038
    10  C   -0.152450
    11  C    0.056377
    12  H   -0.429278
    13  S    0.648225
    14  C   -0.044845
    15  C    0.557391
    16  H   -0.387583
    17  H   -0.324291
    18  H   -0.536017
    19  O   -0.847263
    20  H    0.134847
 Sum of Mulliken charges =  -0.00000

 Dipole moment (field-independent basis, Debye):
    X=             -1.1811    Y=              1.3076    Z=             -1.1763  Tot=              2.1186
 Quadrupole moment (field-independent basis, Debye-Ang):
   XX=            -96.9497   YY=            -97.9111   ZZ=           -104.9968
   XY=              6.2914   XZ=              0.0093   YZ=             -2.0013

 Normal termination of Gaussian 16 at Mon Nov  1 12:22:32 2021.
