 Gaussian 16, Revision C.01,
 Gaussian 16:  ES64L-G16RevC.01  3-Jul-2019

 -----------------
 # mp2/aug-cc-pvdz
 -----------------

 ----------------
 pgT2_TT_-145.pdb
 ----------------
 Symbolic Z-matrix:
 Charge =  0 Multiplicity = 1

                         Standard orientation:
 ---------------------------------------------------------------------
 Center     Atomic      Atomic             Coordinates (Angstroms)
 Number     Number       Type             X           Y           Z
 ---------------------------------------------------------------------
      1          6           0       -3.759278    0.741118   -0.159410
      2          6           0       -2.369240    1.030696   -0.349769
      3          6           0       -1.569426    0.000692    0.000645
      4          6           0       -3.989498   -0.508585    0.311274
      5         16           0       -2.499654   -1.348796    0.571486
      6          1           0       -4.939573   -0.968255    0.521655
      7          6           0       -0.099436   -0.029659   -0.019560
      8         16           0        0.770160   -1.500079   -0.438927
      9          6           0        2.290381   -0.680323   -0.229582
     10          6           0        2.110737    0.619905    0.129771
     11          6           0        0.730844    1.000288    0.249781
     12          1           0        0.391118    1.980528    0.559323
     13         16           0        3.630959    1.439661    0.339117
     14          6           0        4.490558   -0.030746   -0.060250
     15          6           0        3.670274   -1.070700   -0.339586
     16          1           0        5.560556   -0.030999   -0.070410
     17          1           0        4.020006   -2.050922   -0.609130
     18          1           0       -1.999084    1.960403   -0.750307
     19          8           0       -4.759122    1.601199   -0.449706
     20          1           0       -4.418987    2.410938   -0.800177
 ---------------------------------------------------------------------

 SCF Done:  E(RHF) =  -1649.64243241     A.U. after   17 cycles
 E2 =    -0.1968676477D+01 EUMP2 =    -0.16516111088914D+04

 The electronic state is 1-A.
 Alpha  occ. eigenvalues --  -91.99553 -91.99501 -91.98925 -20.60798 -11.31454
 Alpha  occ. eigenvalues --  -11.29584 -11.29472 -11.28205 -11.27819 -11.27672
 Alpha  occ. eigenvalues --  -11.26411 -11.26254 -11.25649 -11.25330  -8.99719
 Alpha  occ. eigenvalues --   -8.99663  -8.99140  -6.67883  -6.67830  -6.67803
 Alpha  occ. eigenvalues --   -6.67751  -6.67591  -6.67545  -6.67310  -6.67219
 Alpha  occ. eigenvalues --   -6.67019  -1.42635  -1.22228  -1.18731  -1.13181
 Alpha  occ. eigenvalues --   -1.03215  -1.02550  -0.99221  -0.96138  -0.94955
 Alpha  occ. eigenvalues --   -0.84239  -0.78857  -0.77876  -0.74670  -0.73001
 Alpha  occ. eigenvalues --   -0.72062  -0.67709  -0.66235  -0.61278  -0.60710
 Alpha  occ. eigenvalues --   -0.58185  -0.57409  -0.56271  -0.54957  -0.53871
 Alpha  occ. eigenvalues --   -0.52814  -0.51357  -0.50295  -0.48397  -0.46959
 Alpha  occ. eigenvalues --   -0.46588  -0.39464  -0.35877  -0.33309  -0.32716
 Alpha  occ. eigenvalues --   -0.28898
 Alpha virt. eigenvalues --    0.02881   0.03379   0.04490   0.04782   0.04895
 Alpha virt. eigenvalues --    0.05761   0.07002   0.08275   0.08320   0.09248
 Alpha virt. eigenvalues --    0.09680   0.10192   0.10685   0.11039   0.11637

 Mulliken charges:
               1
     1  C    0.413927
     2  C    0.302241
     3  C    0.462059
     4  C    0.055746
     5  S    0.515337
     6  H   -0.354461
     7  C    0.175293
     8  S    0.439648
     9  C   -0.704934
    10  C   -0.108691
    11  C    0.249057
    12  H   -0.450038
    13  S    0.580031
    14  C   -0.062875
    15  C    0.467150
    16  H   -0.393828
    17  H   -0.324202
    18  H   -0.549189
    19  O   -0.850332
    20  H    0.138061
 Sum of Mulliken charges =  -0.00000

 Dipole moment (field-independent basis, Debye):
    X=              1.2683    Y=              1.5510    Z=             -0.6822  Tot=              2.1165
 Quadrupole moment (field-independent basis, Debye-Ang):
   XX=            -96.5994   YY=            -94.4633   ZZ=           -108.5701
   XY=             -7.0206   XZ=              0.1042   YZ=             -1.6412

 Normal termination of Gaussian 16 at Mon Nov  1 12:12:50 2021.
