 Gaussian 16, Revision C.01,
 Gaussian 16:  ES64L-G16RevC.01  3-Jul-2019

 -----------------
 # mp2/aug-cc-pvdz
 -----------------

 ---------------
 pgT2_TT_180.pdb
 ---------------
 Symbolic Z-matrix:
 Charge =  0 Multiplicity = 1

                         Standard orientation:
 ---------------------------------------------------------------------
 Center     Atomic      Atomic             Coordinates (Angstroms)
 Number     Number       Type             X           Y           Z
 ---------------------------------------------------------------------
      1          6           0        1.472510    3.547122   -0.000000
      2          6           0        1.524148    2.111945   -0.000000
      3          6           0        0.305280    1.540490   -0.000000
      4          6           0        0.211162    4.032405   -0.000000
      5         16           0       -0.950544    2.747554    0.000000
      6          1           0       -0.090013    5.067293   -0.000000
      7          6           0        0.000000    0.102225   -0.000000
      8         16           0       -1.667940   -0.475075    0.000000
      9          6           0       -1.128053   -2.125688    0.000000
     10          6           0        0.233621   -2.192360   -0.000000
     11          6           0        0.883567   -0.921742   -0.000000
     12          1           0        1.959068   -0.781037   -0.000000
     13         16           0        0.783331   -3.844849   -0.000000
     14          6           0       -0.871035   -4.404381    0.000000
     15          6           0       -1.779875   -3.406128    0.000000
     16          1           0       -1.073673   -5.465200    0.000000
     17          1           0       -2.845554   -3.548709    0.000000
     18          1           0        2.458487    1.566958   -0.000000
     19          8           0        2.561923    4.346922   -0.000000
     20          1           0        3.350802    3.839902   -0.000000
 ---------------------------------------------------------------------

 SCF Done:  E(RHF) =  -1649.64054054     A.U. after   18 cycles
 E2 =    -0.1968927137D+01 EUMP2 =    -0.16516094676750D+04

 The electronic state is 1-A'.
 Alpha  occ. eigenvalues --  -91.99530 -91.99518 -91.98969 -20.60811 -11.31476
 Alpha  occ. eigenvalues --  -11.29767 -11.29660 -11.28282 -11.27866 -11.27714
 Alpha  occ. eigenvalues --  -11.26410 -11.26255 -11.25655 -11.25346  -8.99711
 Alpha  occ. eigenvalues --   -8.99686  -8.99185  -6.67877  -6.67852  -6.67799
 Alpha  occ. eigenvalues --   -6.67774  -6.67586  -6.67567  -6.67358  -6.67267
 Alpha  occ. eigenvalues --   -6.67063  -1.42826  -1.22324  -1.18773  -1.13246
 Alpha  occ. eigenvalues --   -1.03384  -1.02702  -0.99238  -0.96219  -0.94913
 Alpha  occ. eigenvalues --   -0.84360  -0.79002  -0.77897  -0.74793  -0.73241
 Alpha  occ. eigenvalues --   -0.71856  -0.67834  -0.66252  -0.61419  -0.60772
 Alpha  occ. eigenvalues --   -0.58251  -0.57486  -0.56068  -0.54965  -0.53183
 Alpha  occ. eigenvalues --   -0.52940  -0.52240  -0.50634  -0.48426  -0.46964
 Alpha  occ. eigenvalues --   -0.46325  -0.39900  -0.36319  -0.33734  -0.32506
 Alpha  occ. eigenvalues --   -0.28217
 Alpha virt. eigenvalues --    0.02791   0.03369   0.04442   0.04766   0.05089
 Alpha virt. eigenvalues --    0.05261   0.07503   0.08338   0.09131   0.09167
 Alpha virt. eigenvalues --    0.09664   0.10351   0.10877   0.11320   0.12123

 Mulliken charges:
               1
     1  C    0.181343
     2  C    0.688185
     3  C    0.400326
     4  C    0.061410
     5  S    0.478590
     6  H   -0.382930
     7  C   -0.414340
     8  S    0.522330
     9  C   -0.669323
    10  C    0.061892
    11  C    0.825383
    12  H   -0.509055
    13  S    0.496572
    14  C   -0.227209
    15  C    0.477292
    16  H   -0.374638
    17  H   -0.331594
    18  H   -0.558884
    19  O   -0.845668
    20  H    0.120317
 Sum of Mulliken charges =  -0.00000

 Dipole moment (field-independent basis, Debye):
    X=              1.4010    Y=             -1.5994    Z=             -0.0000  Tot=              2.1262
 Quadrupole moment (field-independent basis, Debye-Ang):
   XX=            -89.8534   YY=            -99.1515   ZZ=           -110.6336
   XY=              6.1132   XZ=              0.0000   YZ=             -0.0000

 Normal termination of Gaussian 16 at Mon Nov  1 12:33:24 2021.
