 Gaussian 16, Revision C.01,
 Gaussian 16:  ES64L-G16RevC.01  3-Jul-2019

 -----------------
 # mp2/aug-cc-pvdz
 -----------------

 ---------------
 pgT2_TT_-45.pdb
 ---------------
 Symbolic Z-matrix:
 Charge =  0 Multiplicity = 1

                         Standard orientation:
 ---------------------------------------------------------------------
 Center     Atomic      Atomic             Coordinates (Angstroms)
 Number     Number       Type             X           Y           Z
 ---------------------------------------------------------------------
      1          6           0       -3.820590    0.371059    0.312047
      2          6           0       -2.460599    0.811495    0.450764
      3          6           0       -1.560646   -0.089172   -0.008019
      4          6           0       -3.920629   -0.849924   -0.245798
      5         16           0       -2.360685   -1.500377   -0.635268
      6          1           0       -4.820630   -1.400416   -0.454500
      7          6           0       -0.100657    0.011053    0.001249
      8         16           0        0.678942    1.500313   -0.491632
      9          6           0        2.249148    0.811024   -0.211037
     10          6           0        2.139495   -0.488262    0.211258
     11          6           0        0.789607   -0.948246    0.332572
     12          1           0        0.509879   -1.937695    0.674395
     13         16           0        3.709698   -1.187569    0.481871
     14          6           0        4.479307    0.311742    0.018977
     15          6           0        3.599036    1.271008   -0.332351
     16          1           0        5.549297    0.381894    0.018446
     17          1           0        3.888775    2.260510   -0.644177
     18          1           0       -2.180564    1.762314    0.899009
     19          8           0       -4.890544    1.091581    0.701208
     20          1           0       -4.630534    1.932207    1.039652
 ---------------------------------------------------------------------

 SCF Done:  E(RHF) =  -1649.64355164     A.U. after   17 cycles
 E2 =    -0.1967949674D+01 EUMP2 =    -0.16516115013129D+04

 The electronic state is 1-A.
 Alpha  occ. eigenvalues --  -91.99624 -91.99442 -91.98972 -20.60800 -11.31358
 Alpha  occ. eigenvalues --  -11.29487 -11.29401 -11.28142 -11.27849 -11.27709
 Alpha  occ. eigenvalues --  -11.26299 -11.26152 -11.25569 -11.25476  -8.99801
 Alpha  occ. eigenvalues --   -8.99605  -8.99161  -6.67967  -6.67888  -6.67771
 Alpha  occ. eigenvalues --   -6.67693  -6.67676  -6.67488  -6.67329  -6.67239
 Alpha  occ. eigenvalues --   -6.67038  -1.42831  -1.22272  -1.18665  -1.13338
 Alpha  occ. eigenvalues --   -1.03082  -1.02858  -0.99165  -0.96019  -0.95113
 Alpha  occ. eigenvalues --   -0.84398  -0.78675  -0.77956  -0.75162  -0.72833
 Alpha  occ. eigenvalues --   -0.71689  -0.67470  -0.66350  -0.61148  -0.60802
 Alpha  occ. eigenvalues --   -0.58598  -0.57571  -0.56706  -0.54689  -0.53892
 Alpha  occ. eigenvalues --   -0.52844  -0.51255  -0.50071  -0.48254  -0.46936
 Alpha  occ. eigenvalues --   -0.46571  -0.39509  -0.35730  -0.33235  -0.32709
 Alpha  occ. eigenvalues --   -0.29122
 Alpha virt. eigenvalues --    0.03114   0.03368   0.04373   0.04729   0.04939
 Alpha virt. eigenvalues --    0.06278   0.06634   0.08298   0.08325   0.09182
 Alpha virt. eigenvalues --    0.09580   0.10478   0.10597   0.10814   0.11661

 Mulliken charges:
               1
     1  C    0.478374
     2  C    0.192076
     3  C    0.533106
     4  C    0.103172
     5  S    0.438492
     6  H   -0.364888
     7  C    0.340597
     8  S    0.426043
     9  C   -0.714013
    10  C   -0.237552
    11  C    0.226160
    12  H   -0.465133
    13  S    0.603224
    14  C   -0.105297
    15  C    0.531615
    16  H   -0.384943
    17  H   -0.323854
    18  H   -0.564379
    19  O   -0.846875
    20  H    0.134073
 Sum of Mulliken charges =  -0.00000

 Dipole moment (field-independent basis, Debye):
    X=              1.0862    Y=              1.7189    Z=              0.7437  Tot=              2.1651
 Quadrupole moment (field-independent basis, Debye-Ang):
   XX=            -96.2542   YY=            -95.1446   ZZ=           -107.9791
   XY=              0.3469   XZ=             -2.7499   YZ=              1.5662

 Normal termination of Gaussian 16 at Mon Nov  1 12:09:18 2021.
