 Gaussian 16, Revision C.01,
 Gaussian 16:  ES64L-G16RevC.01  3-Jul-2019

 -----------------
 # mp2/aug-cc-pvdz
 -----------------

 ---------------
 pgT2_TT_105.pdb
 ---------------
 Symbolic Z-matrix:
 Charge =  0 Multiplicity = 1

                         Standard orientation:
 ---------------------------------------------------------------------
 Center     Atomic      Atomic             Coordinates (Angstroms)
 Number     Number       Type             X           Y           Z
 ---------------------------------------------------------------------
      1          6           0        3.780618    0.566259   -0.381435
      2          6           0        2.390696    0.775720   -0.682174
      3          6           0        1.570416    0.018648    0.080442
      4          6           0        3.980282   -0.340486    0.581709
      5         16           0        2.480050   -0.967902    1.173870
      6          1           0        4.920159   -0.669439    0.982858
      7          6           0        0.090402   -0.020992    0.030565
      8         16           0       -0.740080   -1.383246   -0.704734
      9          6           0       -2.279817   -0.641624   -0.397312
     10          6           0       -2.129391    0.560459    0.218535
     11          6           0       -0.759260    0.930829    0.467268
     12          1           0       -0.438941    1.832369    0.944155
     13         16           0       -3.669128    1.302116    0.535957
     14          6           0       -4.489610   -0.060107   -0.189342
     15          6           0       -3.639948   -1.011963   -0.636044
     16          1           0       -5.559613   -0.069860   -0.229318
     17          1           0       -3.960271   -1.923469   -1.102897
     18          1           0        2.030947    1.453216   -1.444526
     19          8           0        4.790857    1.213713   -1.013669
     20          1           0        4.461071    1.791545   -1.675675
 ---------------------------------------------------------------------

 SCF Done:  E(RHF) =  -1649.64132889     A.U. after   17 cycles
 E2 =    -0.1965632705D+01 EUMP2 =    -0.16516069615981D+04

 The electronic state is 1-A.
 Alpha  occ. eigenvalues --  -91.99406 -91.99374 -91.98852 -20.60602 -11.31173
 Alpha  occ. eigenvalues --  -11.29420 -11.29304 -11.28141 -11.27658 -11.27509
 Alpha  occ. eigenvalues --  -11.26335 -11.26063 -11.25534 -11.25506  -8.99571
 Alpha  occ. eigenvalues --   -8.99549  -8.99063  -6.67734  -6.67714  -6.67653
 Alpha  occ. eigenvalues --   -6.67636  -6.67442  -6.67431  -6.67231  -6.67141
 Alpha  occ. eigenvalues --   -6.66940  -1.42437  -1.22231  -1.18791  -1.13236
 Alpha  occ. eigenvalues --   -1.03145  -1.02586  -0.98982  -0.96309  -0.95021
 Alpha  occ. eigenvalues --   -0.84066  -0.78617  -0.77977  -0.74688  -0.72664
 Alpha  occ. eigenvalues --   -0.72453  -0.67714  -0.66165  -0.61125  -0.60567
 Alpha  occ. eigenvalues --   -0.58282  -0.57472  -0.56718  -0.54908  -0.54355
 Alpha  occ. eigenvalues --   -0.52522  -0.50923  -0.49571  -0.48651  -0.46663
 Alpha  occ. eigenvalues --   -0.46625  -0.39187  -0.35108  -0.32713  -0.32518
 Alpha  occ. eigenvalues --   -0.30684
 Alpha virt. eigenvalues --    0.03029   0.03382   0.04551   0.04654   0.04783
 Alpha virt. eigenvalues --    0.06123   0.07972   0.08129   0.08264   0.08811
 Alpha virt. eigenvalues --    0.09471   0.10064   0.10388   0.10775   0.11447

 Mulliken charges:
               1
     1  C    0.562558
     2  C    0.146924
     3  C    0.421939
     4  C    0.074773
     5  S    0.444058
     6  H   -0.348547
     7  C    0.358352
     8  S    0.409656
     9  C   -0.767026
    10  C   -0.221811
    11  C    0.113247
    12  H   -0.438001
    13  S    0.635213
    14  C   -0.057163
    15  C    0.635259
    16  H   -0.388705
    17  H   -0.330220
    18  H   -0.527839
    19  O   -0.847446
    20  H    0.124779
 Sum of Mulliken charges =  -0.00000

 Dipole moment (field-independent basis, Debye):
    X=             -1.2046    Y=              1.1260    Z=             -1.3313  Tot=              2.1192
 Quadrupole moment (field-independent basis, Debye-Ang):
   XX=            -97.0790   YY=            -99.6782   ZZ=           -103.2511
   XY=              5.7919   XZ=             -0.1730   YZ=             -1.9581

 Normal termination of Gaussian 16 at Mon Nov  1 12:20:59 2021.
