 Gaussian 16, Revision C.01,
 Gaussian 16:  ES64L-G16RevC.01  3-Jul-2019

 -----------------
 # mp2/aug-cc-pvdz
 -----------------

 ---------------
 pgT2_TT_175.pdb
 ---------------
 Symbolic Z-matrix:
 Charge =  0 Multiplicity = 1

                         Standard orientation:
 ---------------------------------------------------------------------
 Center     Atomic      Atomic             Coordinates (Angstroms)
 Number     Number       Type             X           Y           Z
 ---------------------------------------------------------------------
      1          6           0        3.761058    0.778225   -0.020459
      2          6           0        2.361290    1.099196   -0.060792
      3          6           0        1.570499    0.009830   -0.009487
      4          6           0        4.000093   -0.551854    0.061097
      5         16           0        2.519447   -1.440742    0.092188
      6          1           0        4.949738   -1.042498    0.101644
      7          6           0        0.100477   -0.019112   -0.019407
      8         16           0       -0.780637   -1.548541   -0.077582
      9          6           0       -2.300024   -0.707390   -0.038523
     10          6           0       -2.109041    0.642541    0.019885
     11          6           0       -0.738750    1.041556    0.029373
     12          1           0       -0.398006    2.061379    0.088164
     13         16           0       -3.628428    1.483693    0.058944
     14          6           0       -4.489528   -0.025750    0.000745
     15          6           0       -3.680315   -1.106397   -0.048010
     16          1           0       -5.569527   -0.024953    0.010778
     17          1           0       -4.021058   -2.126196   -0.086801
     18          1           0        2.002022    2.109363   -0.141968
     19          8           0        4.751726    1.697457   -0.061570
     20          1           0        4.402356    2.567617   -0.142582
 ---------------------------------------------------------------------

 SCF Done:  E(RHF) =  -1649.64064290     A.U. after   18 cycles
 E2 =    -0.1968933382D+01 EUMP2 =    -0.16516095762775D+04

 The electronic state is 1-A.
 Alpha  occ. eigenvalues --  -91.99519 -91.99497 -91.98937 -20.60818 -11.31509
 Alpha  occ. eigenvalues --  -11.29778 -11.29615 -11.28227 -11.27857 -11.27698
 Alpha  occ. eigenvalues --  -11.26357 -11.26232 -11.25584 -11.25258  -8.99696
 Alpha  occ. eigenvalues --   -8.99690  -8.99177  -6.67862  -6.67857  -6.67784
 Alpha  occ. eigenvalues --   -6.67779  -6.67572  -6.67571  -6.67351  -6.67260
 Alpha  occ. eigenvalues --   -6.67056  -1.42700  -1.22347  -1.18862  -1.13302
 Alpha  occ. eigenvalues --   -1.03428  -1.02713  -0.99287  -0.96229  -0.94939
 Alpha  occ. eigenvalues --   -0.84349  -0.79066  -0.77896  -0.74770  -0.73265
 Alpha  occ. eigenvalues --   -0.72016  -0.67887  -0.66242  -0.61500  -0.60738
 Alpha  occ. eigenvalues --   -0.58386  -0.57499  -0.56071  -0.55079  -0.53264
 Alpha  occ. eigenvalues --   -0.53002  -0.52249  -0.50648  -0.48397  -0.47007
 Alpha  occ. eigenvalues --   -0.46302  -0.39886  -0.36299  -0.33682  -0.32467
 Alpha  occ. eigenvalues --   -0.28217
 Alpha virt. eigenvalues --    0.02796   0.03370   0.04440   0.04771   0.05066
 Alpha virt. eigenvalues --    0.05292   0.07451   0.08345   0.08960   0.09141
 Alpha virt. eigenvalues --    0.09778   0.10334   0.10889   0.11242   0.12073

 Mulliken charges:
               1
     1  C    0.192248
     2  C    0.669328
     3  C    0.371369
     4  C    0.089585
     5  S    0.503619
     6  H   -0.395135
     7  C   -0.349049
     8  S    0.507208
     9  C   -0.683048
    10  C    0.019985
    11  C    0.839603
    12  H   -0.526134
    13  S    0.516931
    14  C   -0.215968
    15  C    0.460021
    16  H   -0.372722
    17  H   -0.329689
    18  H   -0.571470
    19  O   -0.852799
    20  H    0.126117
 Sum of Mulliken charges =  -0.00000

 Dipole moment (field-independent basis, Debye):
    X=             -1.3060    Y=              1.6759    Z=             -0.1317  Tot=              2.1288
 Quadrupole moment (field-independent basis, Debye-Ang):
   XX=            -96.5298   YY=            -92.5170   ZZ=           -110.5184
   XY=              7.2981   XZ=             -0.2918   YZ=             -0.4765

 Normal termination of Gaussian 16 at Mon Nov  1 12:32:02 2021.
