 Gaussian 16, Revision C.01,
 Gaussian 16:  ES64L-G16RevC.01  3-Jul-2019

 -----------------
 # mp2/aug-cc-pvdz
 -----------------

 ----------------
 pgT2_TT_-165.pdb
 ----------------
 Symbolic Z-matrix:
 Charge =  0 Multiplicity = 1

                         Standard orientation:
 ---------------------------------------------------------------------
 Center     Atomic      Atomic             Coordinates (Angstroms)
 Number     Number       Type             X           Y           Z
 ---------------------------------------------------------------------
      1          6           0       -3.760490    0.772286   -0.068358
      2          6           0       -2.370371    1.081743   -0.178389
      3          6           0       -1.570824    0.001289   -0.029240
      4          6           0       -4.001029   -0.537766    0.170815
      5         16           0       -2.511407   -1.428492    0.269972
      6          1           0       -4.951228   -1.027418    0.280652
      7          6           0       -0.100835   -0.019355   -0.039504
      8         16           0        0.778461   -1.539626   -0.220661
      9          6           0        2.298851   -0.700372   -0.110363
     10          6           0        2.109473    0.639606    0.050557
     11          6           0        0.729658    1.040184    0.101057
     12          1           0        0.400132    2.050230    0.251782
     13         16           0        3.629865    1.478852    0.170855
     14          6           0        4.489165   -0.031409   -0.010292
     15          6           0        3.678669   -1.100964   -0.140863
     16          1           0        5.569167   -0.031894   -0.000475
     17          1           0        4.028201   -2.111039   -0.261591
     18          1           0       -1.999964    2.081718   -0.387789
     19          8           0       -4.750107    1.682804   -0.187586
     20          1           0       -4.409762    2.532779   -0.377081
 ---------------------------------------------------------------------

 SCF Done:  E(RHF) =  -1649.64117554     A.U. after   17 cycles
 E2 =    -0.1968911302D+01 EUMP2 =    -0.16516100868404D+04

 The electronic state is 1-A.
 Alpha  occ. eigenvalues --  -91.99547 -91.99494 -91.98997 -20.60747 -11.31487
 Alpha  occ. eigenvalues --  -11.29810 -11.29651 -11.28233 -11.27897 -11.27752
 Alpha  occ. eigenvalues --  -11.26447 -11.26218 -11.25707 -11.25360  -8.99715
 Alpha  occ. eigenvalues --   -8.99663  -8.99200  -6.67880  -6.67829  -6.67800
 Alpha  occ. eigenvalues --   -6.67751  -6.67588  -6.67544  -6.67371  -6.67280
 Alpha  occ. eigenvalues --   -6.67080  -1.42923  -1.22206  -1.18731  -1.13195
 Alpha  occ. eigenvalues --   -1.03279  -1.02615  -0.99234  -0.96248  -0.94898
 Alpha  occ. eigenvalues --   -0.84346  -0.79088  -0.77906  -0.74735  -0.73209
 Alpha  occ. eigenvalues --   -0.71870  -0.67965  -0.66213  -0.61320  -0.60805
 Alpha  occ. eigenvalues --   -0.58161  -0.57404  -0.56079  -0.55045  -0.53429
 Alpha  occ. eigenvalues --   -0.52962  -0.51896  -0.50584  -0.48362  -0.46928
 Alpha  occ. eigenvalues --   -0.46389  -0.39736  -0.36106  -0.33682  -0.32601
 Alpha  occ. eigenvalues --   -0.28386
 Alpha virt. eigenvalues --    0.02826   0.03374   0.04449   0.04776   0.04995
 Alpha virt. eigenvalues --    0.05385   0.07153   0.08329   0.08545   0.09157
 Alpha virt. eigenvalues --    0.09984   0.10156   0.10803   0.11095   0.11879

 Mulliken charges:
               1
     1  C    0.326129
     2  C    0.494495
     3  C    0.377672
     4  C    0.043703
     5  S    0.516876
     6  H   -0.375927
     7  C   -0.075082
     8  S    0.466030
     9  C   -0.664968
    10  C   -0.054982
    11  C    0.624736
    12  H   -0.517214
    13  S    0.519434
    14  C   -0.163257
    15  C    0.442611
    16  H   -0.374510
    17  H   -0.323015
    18  H   -0.544726
    19  O   -0.840579
    20  H    0.122574
 Sum of Mulliken charges =  -0.00000

 Dipole moment (field-independent basis, Debye):
    X=              1.2935    Y=              1.6315    Z=             -0.3283  Tot=              2.1077
 Quadrupole moment (field-independent basis, Debye-Ang):
   XX=            -96.4830   YY=            -92.9393   ZZ=           -110.1522
   XY=             -7.3196   XZ=              0.3637   YZ=             -1.0506

 Normal termination of Gaussian 16 at Mon Nov  1 11:46:06 2021.
