 Gaussian 16, Revision C.01,
 Gaussian 16:  ES64L-G16RevC.01  3-Jul-2019

 -----------------
 # mp2/aug-cc-pvdz
 -----------------

 ---------------
 pgT2_TT_120.pdb
 ---------------
 Symbolic Z-matrix:
 Charge =  0 Multiplicity = 1

                         Standard orientation:
 ---------------------------------------------------------------------
 Center     Atomic      Atomic             Coordinates (Angstroms)
 Number     Number       Type             X           Y           Z
 ---------------------------------------------------------------------
      1          6           0        3.770152    0.668143   -0.287079
      2          6           0        2.370458    0.918923   -0.528047
      3          6           0        1.569544    0.009242    0.071218
      4          6           0        3.989037   -0.432101    0.452890
      5         16           0        2.488304   -1.191388    0.911675
      6          1           0        4.928596   -0.842650    0.763498
      7          6           0        0.099553   -0.029976    0.030149
      8         16           0       -0.750696   -1.419412   -0.640705
      9          6           0       -2.280499   -0.648654   -0.351678
     10          6           0       -2.120255    0.581164    0.208650
     11          6           0       -0.750224    0.940404    0.429702
     12          1           0       -0.420059    1.870152    0.880101
     13         16           0       -3.650058    1.351922    0.497678
     14          6           0       -4.490321   -0.037523   -0.153169
     15          6           0       -3.650542   -1.017895   -0.562732
     16          1           0       -5.560291   -0.036951   -0.193942
     17          1           0       -3.980722   -1.947647   -0.993131
     18          1           0        2.001317    1.739220   -1.118172
     19          8           0        4.770912    1.437700   -0.776223
     20          1           0        4.421655    2.147972   -1.286353
 ---------------------------------------------------------------------

 SCF Done:  E(RHF) =  -1649.64219246     A.U. after   17 cycles
 E2 =    -0.1967320562D+01 EUMP2 =    -0.16516095130180D+04

 The electronic state is 1-A.
 Alpha  occ. eigenvalues --  -91.99481 -91.99446 -91.98897 -20.60788 -11.31392
 Alpha  occ. eigenvalues --  -11.29447 -11.29360 -11.28217 -11.27710 -11.27550
 Alpha  occ. eigenvalues --  -11.26411 -11.26204 -11.25636 -11.25512  -8.99634
 Alpha  occ. eigenvalues --   -8.99615  -8.99092  -6.67797  -6.67781  -6.67716
 Alpha  occ. eigenvalues --   -6.67702  -6.67506  -6.67496  -6.67261  -6.67167
 Alpha  occ. eigenvalues --   -6.66968  -1.42608  -1.22214  -1.18643  -1.13128
 Alpha  occ. eigenvalues --   -1.03158  -1.02602  -0.98980  -0.96196  -0.94978
 Alpha  occ. eigenvalues --   -0.84204  -0.78730  -0.77874  -0.74659  -0.72763
 Alpha  occ. eigenvalues --   -0.72296  -0.67524  -0.66275  -0.61349  -0.60628
 Alpha  occ. eigenvalues --   -0.58240  -0.57420  -0.56571  -0.54899  -0.54094
 Alpha  occ. eigenvalues --   -0.52648  -0.50998  -0.49724  -0.48531  -0.46802
 Alpha  occ. eigenvalues --   -0.46631  -0.39268  -0.35323  -0.33046  -0.32651
 Alpha  occ. eigenvalues --   -0.29921
 Alpha virt. eigenvalues --    0.02967   0.03381   0.04530   0.04732   0.04797
 Alpha virt. eigenvalues --    0.06012   0.07535   0.08210   0.08217   0.09080
 Alpha virt. eigenvalues --    0.09452   0.10269   0.10487   0.10795   0.11454

 Mulliken charges:
               1
     1  C    0.495683
     2  C    0.218108
     3  C    0.482667
     4  C    0.089941
     5  S    0.440062
     6  H   -0.356290
     7  C    0.357290
     8  S    0.404406
     9  C   -0.790733
    10  C   -0.116210
    11  C    0.039847
    12  H   -0.420424
    13  S    0.627381
    14  C   -0.052924
    15  C    0.562107
    16  H   -0.387751
    17  H   -0.325455
    18  H   -0.553364
    19  O   -0.844347
    20  H    0.130007
 Sum of Mulliken charges =  -0.00000

 Dipole moment (field-independent basis, Debye):
    X=             -1.2409    Y=              1.3821    Z=             -1.0598  Tot=              2.1385
 Quadrupole moment (field-independent basis, Debye-Ang):
   XX=            -96.9854   YY=            -97.2274   ZZ=           -105.8047
   XY=              6.2540   XZ=              0.2621   YZ=             -1.9039

 Normal termination of Gaussian 16 at Mon Nov  1 12:23:14 2021.
