 Gaussian 16, Revision C.01,
 Gaussian 16:  ES64L-G16RevC.01  3-Jul-2019

 -----------------
 # mp2/aug-cc-pvdz
 -----------------

 -------------
 pgT2_TT_5.pdb
 -------------
 Symbolic Z-matrix:
 Charge =  0 Multiplicity = 1

                         Standard orientation:
 ---------------------------------------------------------------------
 Center     Atomic      Atomic             Coordinates (Angstroms)
 Number     Number       Type             X           Y           Z
 ---------------------------------------------------------------------
      1          6           0        3.831004    0.411064    0.039678
      2          6           0        2.470733    0.890282    0.060002
      3          6           0        1.561293   -0.110248    0.000329
      4          6           0        3.921758   -0.928890   -0.030235
      5         16           0        2.352165   -1.659799   -0.079753
      6          1           0        4.812098   -1.528379   -0.050423
      7          6           0        0.101230   -0.001089    0.000711
      8         16           0       -0.669705    1.588461   -0.069216
      9          6           0       -2.239273    0.857560   -0.028734
     10          6           0       -2.148473   -0.502383    0.031355
     11          6           0       -0.808182   -1.001610    0.041038
     12          1           0       -0.547570   -2.041456    0.091055
     13         16           0       -3.728044   -1.233291    0.061839
     14          6           0       -4.478965    0.336271    0.001909
     15          6           0       -3.589558    1.346781   -0.038414
     16          1           0       -5.549008    0.415655    0.012189
     17          1           0       -3.860174    2.396621   -0.078429
     18          1           0        2.210141    1.940136    0.109984
     19          8           0        4.910550    1.221690    0.089321
     20          1           0        4.650037    2.131544    0.129315
 ---------------------------------------------------------------------

 SCF Done:  E(RHF) =  -1649.64344877     A.U. after   18 cycles
 E2 =    -0.1967646019D+01 EUMP2 =    -0.16516110947889D+04

 The electronic state is 1-A.
 Alpha  occ. eigenvalues --  -91.99640 -91.99478 -91.98857 -20.60814 -11.31479
 Alpha  occ. eigenvalues --  -11.29778 -11.29683 -11.28168 -11.27914 -11.27757
 Alpha  occ. eigenvalues --  -11.26411 -11.26289 -11.25608 -11.25527  -8.99833
 Alpha  occ. eigenvalues --   -8.99658  -8.99087  -6.68003  -6.67924  -6.67824
 Alpha  occ. eigenvalues --   -6.67746  -6.67710  -6.67539  -6.67264  -6.67172
 Alpha  occ. eigenvalues --   -6.66966  -1.42576  -1.22405  -1.18723  -1.13361
 Alpha  occ. eigenvalues --   -1.03285  -1.03028  -0.99269  -0.96015  -0.95101
 Alpha  occ. eigenvalues --   -0.84490  -0.78758  -0.78080  -0.75261  -0.73057
 Alpha  occ. eigenvalues --   -0.71451  -0.67592  -0.66330  -0.61402  -0.60723
 Alpha  occ. eigenvalues --   -0.58638  -0.57546  -0.56812  -0.54736  -0.53253
 Alpha  occ. eigenvalues --   -0.53201  -0.52188  -0.50475  -0.47975  -0.47078
 Alpha  occ. eigenvalues --   -0.46548  -0.39769  -0.36490  -0.33572  -0.32744
 Alpha  occ. eigenvalues --   -0.28295
 Alpha virt. eigenvalues --    0.03112   0.03335   0.04307   0.04708   0.04986
 Alpha virt. eigenvalues --    0.05262   0.06722   0.08289   0.08971   0.09357
 Alpha virt. eigenvalues --    0.10254   0.10519   0.10864   0.11260   0.11772

 Mulliken charges:
               1
     1  C    0.383011
     2  C    0.151273
     3  C    0.642766
     4  C    0.113555
     5  S    0.531674
     6  H   -0.409033
     7  C    0.162256
     8  S    0.582970
     9  C   -0.658721
    10  C   -0.141881
    11  C    0.400617
    12  H   -0.516712
    13  S    0.536366
    14  C   -0.156612
    15  C    0.384041
    16  H   -0.386267
    17  H   -0.327471
    18  H   -0.575355
    19  O   -0.859639
    20  H    0.143161
 Sum of Mulliken charges =  -0.00000

 Dipole moment (field-independent basis, Debye):
    X=             -1.1678    Y=              1.8298    Z=              0.1037  Tot=              2.1732
 Quadrupole moment (field-independent basis, Debye-Ang):
   XX=            -96.1421   YY=            -92.7366   ZZ=           -110.6150
   XY=             -0.0795   XZ=              0.2958   YZ=              0.1842

 Normal termination of Gaussian 16 at Mon Nov  1 12:12:07 2021.
