 Gaussian 16, Revision C.01,
 Gaussian 16:  ES64L-G16RevC.01  3-Jul-2019

 -----------------
 # mp2/aug-cc-pvdz
 -----------------

 ----------------
 pgT2_TT_-175.pdb
 ----------------
 Symbolic Z-matrix:
 Charge =  0 Multiplicity = 1

                         Standard orientation:
 ---------------------------------------------------------------------
 Center     Atomic      Atomic             Coordinates (Angstroms)
 Number     Number       Type             X           Y           Z
 ---------------------------------------------------------------------
      1          6           0       -3.761057    0.778222   -0.020802
      2          6           0       -2.361288    1.099187   -0.061124
      3          6           0       -1.570499    0.009829   -0.009634
      4          6           0       -4.000096   -0.551846    0.060931
      5         16           0       -2.519451   -1.440729    0.092207
      6          1           0       -4.949742   -1.042484    0.101509
      7          6           0       -0.100477   -0.019115   -0.019490
      8         16           0        0.780640   -1.548552   -0.077414
      9          6           0        2.300026   -0.707395   -0.038412
     10          6           0        2.109040    0.642544    0.019797
     11          6           0        0.738749    1.041560    0.029174
     12          1           0        0.398003    2.061391    0.087807
     13         16           0        3.628426    1.483702    0.058799
     14          6           0        4.489528   -0.025750    0.000848
     15          6           0        3.680317   -1.106404   -0.047788
     16          1           0        5.569527   -0.024951    0.010924
     17          1           0        4.021062   -2.126208   -0.086421
     18          1           0       -2.002017    2.109343   -0.142428
     19          8           0       -4.751723    1.697448   -0.062083
     20          1           0       -4.402351    2.567609   -0.133204
 ---------------------------------------------------------------------

 SCF Done:  E(RHF) =  -1649.64064115     A.U. after   18 cycles
 E2 =    -0.1968895438D+01 EUMP2 =    -0.16516095365836D+04

 The electronic state is 1-A.
 Alpha  occ. eigenvalues --  -91.99519 -91.99497 -91.98938 -20.60812 -11.31510
 Alpha  occ. eigenvalues --  -11.29778 -11.29616 -11.28227 -11.27857 -11.27698
 Alpha  occ. eigenvalues --  -11.26357 -11.26232 -11.25584 -11.25259  -8.99697
 Alpha  occ. eigenvalues --   -8.99690  -8.99177  -6.67862  -6.67857  -6.67784
 Alpha  occ. eigenvalues --   -6.67779  -6.67572  -6.67571  -6.67351  -6.67260
 Alpha  occ. eigenvalues --   -6.67056  -1.42719  -1.22348  -1.18863  -1.13303
 Alpha  occ. eigenvalues --   -1.03429  -1.02714  -0.99289  -0.96230  -0.94941
 Alpha  occ. eigenvalues --   -0.84353  -0.79075  -0.77897  -0.74772  -0.73270
 Alpha  occ. eigenvalues --   -0.72017  -0.67888  -0.66244  -0.61503  -0.60739
 Alpha  occ. eigenvalues --   -0.58386  -0.57499  -0.56073  -0.55080  -0.53267
 Alpha  occ. eigenvalues --   -0.53004  -0.52250  -0.50648  -0.48397  -0.47008
 Alpha  occ. eigenvalues --   -0.46303  -0.39886  -0.36299  -0.33683  -0.32468
 Alpha  occ. eigenvalues --   -0.28217
 Alpha virt. eigenvalues --    0.02797   0.03370   0.04440   0.04771   0.05069
 Alpha virt. eigenvalues --    0.05289   0.07447   0.08345   0.08955   0.09141
 Alpha virt. eigenvalues --    0.09780   0.10334   0.10887   0.11244   0.12075

 Mulliken charges:
               1
     1  C    0.192229
     2  C    0.669915
     3  C    0.371189
     4  C    0.089463
     5  S    0.503399
     6  H   -0.395161
     7  C   -0.348779
     8  S    0.507241
     9  C   -0.682932
    10  C    0.020024
    11  C    0.839227
    12  H   -0.526228
    13  S    0.516841
    14  C   -0.215904
    15  C    0.459775
    16  H   -0.372716
    17  H   -0.329678
    18  H   -0.571414
    19  O   -0.851548
    20  H    0.125055
 Sum of Mulliken charges =  -0.00000

 Dipole moment (field-independent basis, Debye):
    X=              1.3066    Y=              1.6760    Z=             -0.1156  Tot=              2.1283
 Quadrupole moment (field-independent basis, Debye-Ang):
   XX=            -96.5317   YY=            -92.5138   ZZ=           -110.5234
   XY=             -7.2985   XZ=              0.2190   YZ=             -0.4269

 Normal termination of Gaussian 16 at Mon Nov  1 09:58:47 2021.
