 Gaussian 16, Revision C.01,
 Gaussian 16:  ES64L-G16RevC.01  3-Jul-2019

 -----------------
 # mp2/aug-cc-pvdz
 -----------------

 ---------------
 pgT2_TT_-95.pdb
 ---------------
 Symbolic Z-matrix:
 Charge =  0 Multiplicity = 1

                         Standard orientation:
 ---------------------------------------------------------------------
 Center     Atomic      Atomic             Coordinates (Angstroms)
 Number     Number       Type             X           Y           Z
 ---------------------------------------------------------------------
      1          6           0        3.789592   -0.405398   -0.504048
      2          6           0        2.409501   -0.513899   -0.884147
      3          6           0        1.569635   -0.039658    0.068859
      4          6           0        3.969791    0.137853    0.708967
      5         16           0        2.449875    0.543018    1.441836
      6          1           0        4.899894    0.325409    1.219683
      7          6           0        0.089589    0.009987    0.009695
      8         16           0       -0.731294    1.472626   -0.521756
      9          6           0       -2.270856    0.700733   -0.315526
     10          6           0       -2.130087   -0.581775    0.137195
     11          6           0       -0.769829   -0.982204    0.324428
     12          1           0       -0.449246   -1.954013    0.668832
     13         16           0       -3.669653   -1.343668    0.343480
     14          6           0       -4.490527    0.098970   -0.188083
     15          6           0       -3.641115    1.111100   -0.492699
     16          1           0       -5.560556    0.128695   -0.227513
     17          1           0       -3.951693    2.072914   -0.837164
     18          1           0        2.059338   -0.918755   -1.826313
     19          8           0        4.819490   -0.810510   -1.286733
     20          1           0        4.509335   -1.136026   -2.108465
 ---------------------------------------------------------------------

 SCF Done:  E(RHF) =  -1649.64097556     A.U. after   17 cycles
 E2 =    -0.1967330300D+01 EUMP2 =    -0.16516083058651D+04

 The electronic state is 1-A.
 Alpha  occ. eigenvalues --  -91.99471 -91.99404 -91.98873 -20.60554 -11.31222
 Alpha  occ. eigenvalues --  -11.29381 -11.29308 -11.28167 -11.27739 -11.27509
 Alpha  occ. eigenvalues --  -11.26373 -11.26138 -11.25622 -11.25565  -8.99624
 Alpha  occ. eigenvalues --   -8.99598  -8.99063  -6.67786  -6.67766  -6.67705
 Alpha  occ. eigenvalues --   -6.67688  -6.67496  -6.67481  -6.67230  -6.67140
 Alpha  occ. eigenvalues --   -6.66941  -1.42498  -1.22137  -1.18614  -1.13159
 Alpha  occ. eigenvalues --   -1.03089  -1.02582  -0.98950  -0.96184  -0.94983
 Alpha  occ. eigenvalues --   -0.84008  -0.78520  -0.77881  -0.74782  -0.72503
 Alpha  occ. eigenvalues --   -0.72418  -0.67577  -0.66071  -0.61040  -0.60550
 Alpha  occ. eigenvalues --   -0.58289  -0.57407  -0.56691  -0.54874  -0.54355
 Alpha  occ. eigenvalues --   -0.52497  -0.50997  -0.49390  -0.48658  -0.46689
 Alpha  occ. eigenvalues --   -0.46608  -0.39232  -0.34933  -0.32570  -0.32186
 Alpha  occ. eigenvalues --   -0.30969
 Alpha virt. eigenvalues --    0.03063   0.03379   0.04528   0.04666   0.04773
 Alpha virt. eigenvalues --    0.06188   0.07855   0.08197   0.08369   0.08677
 Alpha virt. eigenvalues --    0.09377   0.09920   0.10385   0.10756   0.11432

 Mulliken charges:
               1
     1  C    0.635480
     2  C    0.151691
     3  C    0.371743
     4  C    0.023864
     5  S    0.416569
     6  H   -0.337349
     7  C    0.396589
     8  S    0.396854
     9  C   -0.813574
    10  C   -0.247754
    11  C    0.104612
    12  H   -0.417379
    13  S    0.678172
    14  C   -0.055531
    15  C    0.659943
    16  H   -0.383085
    17  H   -0.344940
    18  H   -0.515084
    19  O   -0.843367
    20  H    0.122546
 Sum of Mulliken charges =  -0.00000

 Dipole moment (field-independent basis, Debye):
    X=             -1.1916    Y=             -0.6367    Z=             -1.6434  Tot=              2.1275
 Quadrupole moment (field-independent basis, Debye-Ang):
   XX=            -97.0630   YY=           -101.8964   ZZ=           -100.9911
   XY=             -5.1771   XZ=             -1.4349   YZ=              1.3905

 Normal termination of Gaussian 16 at Mon Nov  1 12:05:25 2021.
