 Gaussian 16, Revision C.01,
 Gaussian 16:  ES64L-G16RevC.01  3-Jul-2019

 -----------------
 # mp2/aug-cc-pvdz
 -----------------

 --------------
 pgT2_TT_60.pdb
 --------------
 Symbolic Z-matrix:
 Charge =  0 Multiplicity = 1

                         Standard orientation:
 ---------------------------------------------------------------------
 Center     Atomic      Atomic             Coordinates (Angstroms)
 Number     Number       Type             X           Y           Z
 ---------------------------------------------------------------------
      1          6           0        3.820419    0.328768    0.398954
      2          6           0        2.460571    0.738990    0.609504
      3          6           0        1.570225   -0.070399   -0.010798
      4          6           0        3.929965   -0.790801   -0.351757
      5         16           0        2.369710   -1.360097   -0.841764
      6          1           0        4.829772   -1.290855   -0.642261
      7          6           0        0.100253    0.019968    0.009580
      8         16           0       -0.699508    1.460549   -0.599361
      9          6           0       -2.259609    0.780743   -0.259435
     10          6           0       -2.139821   -0.479606    0.259766
     11          6           0       -0.779900   -0.920056    0.419197
     12          1           0       -0.490056   -1.870382    0.828551
     13         16           0       -3.699925   -1.169411    0.599685
     14          6           0       -4.479677    0.281146    0.020746
     15          6           0       -3.609529    1.221184   -0.408869
     16          1           0       -5.549662    0.341422    0.021017
     17          1           0       -3.909366    2.181501   -0.798214
     18          1           0        2.170920    1.588703    1.200088
     19          8           0        4.890698    0.968172    0.919111
     20          1           0        4.621001    1.747960    1.379648
 ---------------------------------------------------------------------

 SCF Done:  E(RHF) =  -1649.64268733     A.U. after   17 cycles
 E2 =    -0.1968137574D+01 EUMP2 =    -0.16516108249007D+04

 The electronic state is 1-A.
 Alpha  occ. eigenvalues --  -91.99536 -91.99449 -91.98985 -20.60768 -11.31398
 Alpha  occ. eigenvalues --  -11.29460 -11.29361 -11.28119 -11.27774 -11.27628
 Alpha  occ. eigenvalues --  -11.26318 -11.26119 -11.25587 -11.25378  -8.99701
 Alpha  occ. eigenvalues --   -8.99617  -8.99185  -6.67865  -6.67785  -6.67782
 Alpha  occ. eigenvalues --   -6.67704  -6.67575  -6.67499  -6.67352  -6.67262
 Alpha  occ. eigenvalues --   -6.67063  -1.42619  -1.22175  -1.18695  -1.13215
 Alpha  occ. eigenvalues --   -1.03075  -1.02632  -0.99212  -0.95995  -0.95071
 Alpha  occ. eigenvalues --   -0.84175  -0.78592  -0.77987  -0.74977  -0.72804
 Alpha  occ. eigenvalues --   -0.71960  -0.67513  -0.66247  -0.61192  -0.60660
 Alpha  occ. eigenvalues --   -0.58586  -0.57498  -0.56694  -0.54881  -0.54149
 Alpha  occ. eigenvalues --   -0.52650  -0.51087  -0.49794  -0.48442  -0.46802
 Alpha  occ. eigenvalues --   -0.46610  -0.39383  -0.35351  -0.33030  -0.32483
 Alpha  occ. eigenvalues --   -0.29767
 Alpha virt. eigenvalues --    0.03111   0.03379   0.04402   0.04741   0.04863
 Alpha virt. eigenvalues --    0.06408   0.07016   0.08200   0.08310   0.08904
 Alpha virt. eigenvalues --    0.09698   0.10158   0.10467   0.10858   0.11408

 Mulliken charges:
               1
     1  C    0.484742
     2  C    0.275826
     3  C    0.416728
     4  C    0.123952
     5  S    0.427541
     6  H   -0.362544
     7  C    0.375898
     8  S    0.409131
     9  C   -0.715286
    10  C   -0.289696
    11  C    0.190813
    12  H   -0.466058
    13  S    0.621002
    14  C   -0.066428
    15  C    0.558434
    16  H   -0.388070
    17  H   -0.317810
    18  H   -0.565391
    19  O   -0.849559
    20  H    0.136776
 Sum of Mulliken charges =  -0.00000

 Dipole moment (field-independent basis, Debye):
    X=             -1.0922    Y=              1.5334    Z=              0.9841  Tot=              2.1243
 Quadrupole moment (field-independent basis, Debye-Ang):
   XX=            -96.5302   YY=            -96.8940   ZZ=           -106.1063
   XY=             -0.5857   XZ=              3.4506   YZ=              1.9863

 Normal termination of Gaussian 16 at Mon Nov  1 12:17:07 2021.
