 Gaussian 16, Revision C.01,
 Gaussian 16:  ES64L-G16RevC.01  3-Jul-2019

 -----------------
 # mp2/aug-cc-pvdz
 -----------------

 ---------------
 pgT2_TT_-10.pdb
 ---------------
 Symbolic Z-matrix:
 Charge =  0 Multiplicity = 1

                         Standard orientation:
 ---------------------------------------------------------------------
 Center     Atomic      Atomic             Coordinates (Angstroms)
 Number     Number       Type             X           Y           Z
 ---------------------------------------------------------------------
      1          6           0       -3.830681    0.409191    0.081867
      2          6           0       -2.470728    0.889386    0.110845
      3          6           0       -1.560643   -0.110665    0.002027
      4          6           0       -3.920565   -0.931015   -0.056217
      5         16           0       -2.350509   -1.650979   -0.155598
      6          1           0       -4.810509   -1.521172   -0.095158
      7          6           0       -0.100658   -0.000515   -0.008498
      8         16           0        0.669133    1.579401   -0.130925
      9          6           0        2.239236    0.849691   -0.050292
     10          6           0        2.149414   -0.500176    0.051638
     11          6           0        0.809478   -1.000285    0.082683
     12          1           0        0.539618   -2.040187    0.174221
     13         16           0        3.729514   -1.229899    0.122268
     14          6           0        4.469309    0.340028    0.009864
     15          6           0        3.589172    1.349800   -0.081340
     16          1           0        5.549300    0.420149    0.009477
     17          1           0        3.859034    2.389717   -0.162877
     18          1           0       -2.210818    1.929570    0.219310
     19          8           0       -4.910750    1.219196    0.170997
     20          1           0       -4.650829    2.119351    0.259660
 ---------------------------------------------------------------------

 SCF Done:  E(RHF) =  -1649.64345696     A.U. after   17 cycles
 E2 =    -0.1967183778D+01 EUMP2 =    -0.16516106407351D+04

 The electronic state is 1-A.
 Alpha  occ. eigenvalues --  -91.99592 -91.99458 -91.98905 -20.60756 -11.31552
 Alpha  occ. eigenvalues --  -11.29738 -11.29658 -11.28191 -11.27853 -11.27676
 Alpha  occ. eigenvalues --  -11.26430 -11.26192 -11.25622 -11.25483  -8.99797
 Alpha  occ. eigenvalues --   -8.99646  -8.99137  -6.67967  -6.67889  -6.67811
 Alpha  occ. eigenvalues --   -6.67733  -6.67675  -6.67525  -6.67314  -6.67223
 Alpha  occ. eigenvalues --   -6.67017  -1.42611  -1.22507  -1.18720  -1.13412
 Alpha  occ. eigenvalues --   -1.03211  -1.03035  -0.99326  -0.96016  -0.95145
 Alpha  occ. eigenvalues --   -0.84406  -0.78850  -0.78069  -0.75210  -0.73072
 Alpha  occ. eigenvalues --   -0.71483  -0.67658  -0.66260  -0.61382  -0.60652
 Alpha  occ. eigenvalues --   -0.58615  -0.57602  -0.56844  -0.54666  -0.53398
 Alpha  occ. eigenvalues --   -0.53164  -0.52128  -0.50549  -0.48017  -0.47112
 Alpha  occ. eigenvalues --   -0.46619  -0.39674  -0.36464  -0.33546  -0.32794
 Alpha  occ. eigenvalues --   -0.28334
 Alpha virt. eigenvalues --    0.03123   0.03334   0.04309   0.04711   0.04989
 Alpha virt. eigenvalues --    0.05356   0.06724   0.08287   0.08938   0.09364
 Alpha virt. eigenvalues --    0.10196   0.10530   0.10782   0.11166   0.11744

 Mulliken charges:
               1
     1  C    0.350113
     2  C    0.198090
     3  C    0.609638
     4  C    0.139459
     5  S    0.524574
     6  H   -0.412872
     7  C    0.219796
     8  S    0.540323
     9  C   -0.678536
    10  C   -0.092477
    11  C    0.341331
    12  H   -0.499162
    13  S    0.532165
    14  C   -0.176158
    15  C    0.413140
    16  H   -0.370583
    17  H   -0.331867
    18  H   -0.589369
    19  O   -0.851769
    20  H    0.134164
 Sum of Mulliken charges =  -0.00000

 Dipole moment (field-independent basis, Debye):
    X=              1.1991    Y=              1.8162    Z=              0.2061  Tot=              2.1861
 Quadrupole moment (field-independent basis, Debye-Ang):
   XX=            -96.2457   YY=            -92.8043   ZZ=           -110.4581
   XY=              0.2329   XZ=             -0.7702   YZ=              0.4158

 Normal termination of Gaussian 16 at Mon Nov  1 12:12:43 2021.
