 Gaussian 16, Revision C.01,
 Gaussian 16:  ES64L-G16RevC.01  3-Jul-2019

 -----------------
 # mp2/aug-cc-pvdz
 -----------------

 ---------------
 pgT2_TT_-90.pdb
 ---------------
 Symbolic Z-matrix:
 Charge =  0 Multiplicity = 1

                         Standard orientation:
 ---------------------------------------------------------------------
 Center     Atomic      Atomic             Coordinates (Angstroms)
 Number     Number       Type             X           Y           Z
 ---------------------------------------------------------------------
      1          6           0        3.799462   -0.192532   -0.599516
      2          6           0        2.419646   -0.148445   -0.999722
      3          6           0        1.569158   -0.059262    0.050857
      4          6           0        3.958840   -0.136311    0.741207
      5         16           0        2.428463   -0.024672    1.551690
      6          1           0        4.878586   -0.151949    1.291501
      7          6           0        0.089180    0.011223    0.000894
      8         16           0       -0.720799    1.562361   -0.103537
      9          6           0       -2.270781    0.772375   -0.112377
     10          6           0       -2.130793   -0.588476   -0.036301
     11          6           0       -0.770816   -1.029148    0.029801
     12          1           0       -0.450830   -2.059911    0.099354
     13         16           0       -3.680780   -1.378564   -0.035142
     14          6           0       -4.480754    0.162677   -0.149671
     15          6           0       -3.630759    1.213048   -0.178479
     16          1           0       -5.560741    0.202965   -0.179758
     17          1           0       -3.950749    2.243708   -0.238033
     18          1           0        2.090124   -0.177859   -2.030231
     19          8           0        4.839862   -0.293666   -1.460120
     20          1           0        4.530274   -0.284520   -2.350216
 ---------------------------------------------------------------------

 SCF Done:  E(RHF) =  -1649.64120296     A.U. after   17 cycles
 E2 =    -0.1968678504D+01 EUMP2 =    -0.16516098814662D+04

 The electronic state is 1-A.
 Alpha  occ. eigenvalues --  -91.99507 -91.99450 -91.98910 -20.60763 -11.31343
 Alpha  occ. eigenvalues --  -11.29319 -11.29247 -11.28147 -11.27766 -11.27592
 Alpha  occ. eigenvalues --  -11.26346 -11.26112 -11.25648 -11.25548  -8.99658
 Alpha  occ. eigenvalues --   -8.99627  -8.99097  -6.67820  -6.67793  -6.67739
 Alpha  occ. eigenvalues --   -6.67715  -6.67530  -6.67509  -6.67264  -6.67173
 Alpha  occ. eigenvalues --   -6.66976  -1.42547  -1.22118  -1.18534  -1.13197
 Alpha  occ. eigenvalues --   -1.03014  -1.02438  -0.98976  -0.96008  -0.95095
 Alpha  occ. eigenvalues --   -0.83891  -0.78474  -0.77707  -0.74786  -0.72500
 Alpha  occ. eigenvalues --   -0.72266  -0.67456  -0.66021  -0.61044  -0.60567
 Alpha  occ. eigenvalues --   -0.58257  -0.57544  -0.56621  -0.54866  -0.54154
 Alpha  occ. eigenvalues --   -0.52359  -0.50985  -0.49436  -0.48717  -0.46745
 Alpha  occ. eigenvalues --   -0.46646  -0.39230  -0.34922  -0.32689  -0.31969
 Alpha  occ. eigenvalues --   -0.30932
 Alpha virt. eigenvalues --    0.03063   0.03380   0.04509   0.04693   0.04768
 Alpha virt. eigenvalues --    0.06210   0.07778   0.08214   0.08398   0.08651
 Alpha virt. eigenvalues --    0.09375   0.09885   0.10352   0.10789   0.11427

 Mulliken charges:
               1
     1  C    0.583706
     2  C    0.187806
     3  C    0.365698
     4  C    0.069330
     5  S    0.405202
     6  H   -0.352262
     7  C    0.415798
     8  S    0.396492
     9  C   -0.762856
    10  C   -0.267296
    11  C    0.085005
    12  H   -0.415348
    13  S    0.656396
    14  C   -0.081876
    15  C    0.644721
    16  H   -0.371017
    17  H   -0.318282
    18  H   -0.523532
    19  O   -0.846666
    20  H    0.128983
 Sum of Mulliken charges =  -0.00000

 Dipole moment (field-independent basis, Debye):
    X=             -1.1725    Y=              0.0167    Z=             -1.7747  Tot=              2.1271
 Quadrupole moment (field-independent basis, Debye-Ang):
   XX=            -97.1090   YY=           -102.7255   ZZ=           -100.1086
   XY=             -4.1189   XZ=             -3.1118   YZ=             -0.0655

 Normal termination of Gaussian 16 at Mon Nov  1 12:05:48 2021.
