 Gaussian 16, Revision C.01,
 Gaussian 16:  ES64L-G16RevC.01  3-Jul-2019

 -----------------
 # mp2/aug-cc-pvdz
 -----------------

 -------------
 pgT2_TT_0.pdb
 -------------
 Symbolic Z-matrix:
 Charge =  0 Multiplicity = 1

                         Standard orientation:
 ---------------------------------------------------------------------
 Center     Atomic      Atomic             Coordinates (Angstroms)
 Number     Number       Type             X           Y           Z
 ---------------------------------------------------------------------
      1          6           0        0.964062    3.730433    0.000000
      2          6           0        0.036585    2.625993    0.000000
      3          6           0        0.652836    1.422525    0.000000
      4          6           0        2.250166    3.343603    0.000000
      5         16           0        2.381624    1.617185    0.000000
      6          1           0        3.124751    3.965857    0.000000
      7          6           0        0.036585    0.094393    0.000000
      8         16           0       -1.722618   -0.067481   -0.000000
      9          6           0       -1.591160   -1.793899   -0.000000
     10          6           0       -0.286333   -2.187760   -0.000000
     11          6           0        0.652836   -1.109075    0.000000
     12          1           0        1.727216   -1.234806    0.000000
     13         16           0       -0.158390   -3.923540   -0.000000
     14          6           0       -1.891839   -4.073721   -0.000000
     15          6           0       -2.524482   -2.885461   -0.000000
     16          1           0       -2.342898   -5.047295   -0.000000
     17          1           0       -3.602378   -2.769092   -0.000000
     18          1           0       -1.037794    2.751724   -0.000000
     19          8           0        0.585448    5.026254    0.000000
     20          1           0       -0.357869    5.102767   -0.000000
 ---------------------------------------------------------------------

 SCF Done:  E(RHF) =  -1649.64343634     A.U. after   18 cycles
 E2 =    -0.1967200013D+01 EUMP2 =    -0.16516106363529D+04

 The electronic state is 1-A'.
 Alpha  occ. eigenvalues --  -91.99629 -91.99466 -91.98822 -20.60805 -11.31435
 Alpha  occ. eigenvalues --  -11.29764 -11.29654 -11.28155 -11.27898 -11.27740
 Alpha  occ. eigenvalues --  -11.26487 -11.26270 -11.25565 -11.25485  -8.99828
 Alpha  occ. eigenvalues --   -8.99651  -8.99060  -6.67998  -6.67920  -6.67817
 Alpha  occ. eigenvalues --   -6.67739  -6.67705  -6.67532  -6.67238  -6.67146
 Alpha  occ. eigenvalues --   -6.66939  -1.42637  -1.22455  -1.18790  -1.13408
 Alpha  occ. eigenvalues --   -1.03292  -1.03060  -0.99275  -0.96038  -0.95121
 Alpha  occ. eigenvalues --   -0.84510  -0.78768  -0.78066  -0.75282  -0.73074
 Alpha  occ. eigenvalues --   -0.71423  -0.67536  -0.66361  -0.61435  -0.60762
 Alpha  occ. eigenvalues --   -0.58660  -0.57579  -0.56799  -0.54724  -0.53268
 Alpha  occ. eigenvalues --   -0.53197  -0.52255  -0.50475  -0.47949  -0.47107
 Alpha  occ. eigenvalues --   -0.46534  -0.39768  -0.36515  -0.33579  -0.32739
 Alpha  occ. eigenvalues --   -0.28316
 Alpha virt. eigenvalues --    0.03114   0.03333   0.04306   0.04705   0.04989
 Alpha virt. eigenvalues --    0.05268   0.06724   0.08289   0.08980   0.09368
 Alpha virt. eigenvalues --    0.10266   0.10522   0.10896   0.11324   0.11807

 Mulliken charges:
               1
     1  C    0.381838
     2  C    0.145435
     3  C    0.646022
     4  C    0.109734
     5  S    0.543031
     6  H   -0.409953
     7  C    0.183895
     8  S    0.604243
     9  C   -0.665845
    10  C   -0.111625
    11  C    0.320578
    12  H   -0.499035
    13  S    0.535428
    14  C   -0.164742
    15  C    0.392427
    16  H   -0.387077
    17  H   -0.330060
    18  H   -0.578303
    19  O   -0.858577
    20  H    0.142586
 Sum of Mulliken charges =  -0.00000

 Dipole moment (field-independent basis, Debye):
    X=             -2.1272    Y=             -0.4487    Z=              0.0000  Tot=              2.1740
 Quadrupole moment (field-independent basis, Debye-Ang):
   XX=            -93.1023   YY=            -95.7165   ZZ=           -110.6307
   XY=             -1.0434   XZ=             -0.0000   YZ=             -0.0000

 Normal termination of Gaussian 16 at Mon Nov  1 12:11:20 2021.
