 Gaussian 16, Revision C.01,
 Gaussian 16:  ES64L-G16RevC.01  3-Jul-2019

 -----------------
 # mp2/aug-cc-pvdz
 -----------------

 ---------------
 pgT2_TT_-75.pdb
 ---------------
 Symbolic Z-matrix:
 Charge =  0 Multiplicity = 1

                         Standard orientation:
 ---------------------------------------------------------------------
 Center     Atomic      Atomic             Coordinates (Angstroms)
 Number     Number       Type             X           Y           Z
 ---------------------------------------------------------------------
      1          6           0       -3.809437    0.243387    0.510947
      2          6           0       -2.449226    0.584219    0.788905
      3          6           0       -1.569766   -0.068979    0.000945
      4          6           0       -3.940134   -0.660436   -0.485507
      5         16           0       -2.390554   -1.123140   -1.114561
      6          1           0       -4.850418   -1.081772   -0.873398
      7          6           0       -0.099740    0.020832    0.019809
      8         16           0        0.710164    1.438170   -0.636092
      9          6           0        2.260234    0.749284   -0.274267
     10          6           0        2.130316   -0.478526    0.290539
     11          6           0        0.780331   -0.907624    0.462918
     12          1           0        0.470389   -1.845943    0.886704
     13         16           0        3.690391   -1.167376    0.662359
     14          6           0        4.480304    0.240043    0.026506
     15          6           0        3.620225    1.178419   -0.436652
     16          1           0        5.560320    0.299887    0.035696
     17          1           0        3.930167    2.116737   -0.860437
     18          1           0       -2.138683    1.287164    1.566035
     19          8           0       -4.868986    0.756157    1.179545
     20          1           0       -4.598538    1.408493    1.796890
 ---------------------------------------------------------------------

 SCF Done:  E(RHF) =  -1649.64149978     A.U. after   17 cycles
 E2 =    -0.1967713054D+01 EUMP2 =    -0.16516092128308D+04

 The electronic state is 1-A.
 Alpha  occ. eigenvalues --  -91.99471 -91.99382 -91.98960 -20.60636 -11.31335
 Alpha  occ. eigenvalues --  -11.29351 -11.29269 -11.28195 -11.27659 -11.27470
 Alpha  occ. eigenvalues --  -11.26278 -11.26102 -11.25725 -11.25556  -8.99630
 Alpha  occ. eigenvalues --   -8.99568  -8.99125  -6.67792  -6.67734  -6.67712
 Alpha  occ. eigenvalues --   -6.67656  -6.67502  -6.67449  -6.67290  -6.67201
 Alpha  occ. eigenvalues --   -6.67003  -1.42580  -1.22282  -1.18627  -1.13208
 Alpha  occ. eigenvalues --   -1.03041  -1.02597  -0.99108  -0.95942  -0.95120
 Alpha  occ. eigenvalues --   -0.84114  -0.78550  -0.77940  -0.74963  -0.72569
 Alpha  occ. eigenvalues --   -0.72068  -0.67508  -0.66120  -0.60916  -0.60600
 Alpha  occ. eigenvalues --   -0.58296  -0.57523  -0.56755  -0.54889  -0.54210
 Alpha  occ. eigenvalues --   -0.52539  -0.51050  -0.49490  -0.48575  -0.46704
 Alpha  occ. eigenvalues --   -0.46590  -0.39182  -0.35172  -0.32953  -0.32131
 Alpha  occ. eigenvalues --   -0.30484
 Alpha virt. eigenvalues --    0.03095   0.03381   0.04446   0.04755   0.04785
 Alpha virt. eigenvalues --    0.06309   0.07475   0.08230   0.08296   0.08720
 Alpha virt. eigenvalues --    0.09611   0.09866   0.10369   0.10866   0.11341

 Mulliken charges:
               1
     1  C    0.566569
     2  C    0.173710
     3  C    0.415893
     4  C    0.066133
     5  S    0.408208
     6  H   -0.347150
     7  C    0.376999
     8  S    0.407545
     9  C   -0.744683
    10  C   -0.255617
    11  C    0.128890
    12  H   -0.438966
    13  S    0.649712
    14  C   -0.095542
    15  C    0.597913
    16  H   -0.367716
    17  H   -0.326538
    18  H   -0.500715
    19  O   -0.840109
    20  H    0.125464
 Sum of Mulliken charges =  -0.00000

 Dipole moment (field-independent basis, Debye):
    X=              1.1066    Y=              1.2744    Z=              1.2865  Tot=              2.1222
 Quadrupole moment (field-independent basis, Debye-Ang):
   XX=            -96.6220   YY=            -99.4147   ZZ=           -103.5468
   XY=              1.1242   XZ=             -4.1660   YZ=              2.2436

 Normal termination of Gaussian 16 at Mon Nov  1 12:08:54 2021.
