 Gaussian 16, Revision C.01,
 Gaussian 16:  ES64L-G16RevC.01  3-Jul-2019

 -----------------
 # mp2/aug-cc-pvdz
 -----------------

 ---------------
 pgT2_TT_-30.pdb
 ---------------
 Symbolic Z-matrix:
 Charge =  0 Multiplicity = 1

                         Standard orientation:
 ---------------------------------------------------------------------
 Center     Atomic      Atomic             Coordinates (Angstroms)
 Number     Number       Type             X           Y           Z
 ---------------------------------------------------------------------
      1          6           0       -3.819596    0.399171    0.219845
      2          6           0       -2.459752    0.859623    0.309898
      3          6           0       -1.559397   -0.100294    0.000673
      4          6           0       -3.919127   -0.891080   -0.159424
      5         16           0       -2.358855   -1.590786   -0.438645
      6          1           0       -4.818923   -1.471427   -0.299297
      7          6           0       -0.099424    0.000129   -0.009040
      8         16           0        0.670207    1.540151   -0.359759
      9          6           0        2.240365    0.830735   -0.148972
     10          6           0        2.150687   -0.499122    0.141785
     11          6           0        0.800807   -0.979466    0.231746
     12          1           0        0.531044   -1.989398    0.482273
     13         16           0        3.720848   -1.208543    0.342572
     14          6           0        4.470472    0.331490    0.021849
     15          6           0        3.590240    1.321085   -0.228939
     16          1           0        5.550451    0.401807    0.022064
     17          1           0        3.869996    2.331038   -0.449463
     18          1           0       -2.190116    1.849884    0.619383
     19          8           0       -4.899886    1.169012    0.489139
     20          1           0       -4.630198    2.039231    0.728694
 ---------------------------------------------------------------------

 SCF Done:  E(RHF) =  -1649.64383488     A.U. after   17 cycles
 E2 =    -0.1967741371D+01 EUMP2 =    -0.16516115762562D+04

 The electronic state is 1-A.
 Alpha  occ. eigenvalues --  -91.99609 -91.99488 -91.98943 -20.60781 -11.31441
 Alpha  occ. eigenvalues --  -11.29628 -11.29524 -11.28224 -11.27858 -11.27691
 Alpha  occ. eigenvalues --  -11.26325 -11.26171 -11.25673 -11.25392  -8.99800
 Alpha  occ. eigenvalues --   -8.99676  -8.99135  -6.67967  -6.67888  -6.67843
 Alpha  occ. eigenvalues --   -6.67764  -6.67675  -6.67556  -6.67306  -6.67215
 Alpha  occ. eigenvalues --   -6.67012  -1.42605  -1.22349  -1.18640  -1.13340
 Alpha  occ. eigenvalues --   -1.03167  -1.02920  -0.99319  -0.95957  -0.95124
 Alpha  occ. eigenvalues --   -0.84330  -0.78524  -0.78009  -0.75200  -0.73048
 Alpha  occ. eigenvalues --   -0.71649  -0.67679  -0.66261  -0.61271  -0.60646
 Alpha  occ. eigenvalues --   -0.58476  -0.57492  -0.56739  -0.54687  -0.53781
 Alpha  occ. eigenvalues --   -0.53008  -0.51569  -0.50342  -0.48173  -0.47033
 Alpha  occ. eigenvalues --   -0.46706  -0.39590  -0.36149  -0.33385  -0.32787
 Alpha  occ. eigenvalues --   -0.28689
 Alpha virt. eigenvalues --    0.03127   0.03351   0.04339   0.04720   0.04970
 Alpha virt. eigenvalues --    0.05848   0.06666   0.08303   0.08537   0.09426
 Alpha virt. eigenvalues --    0.09624   0.10519   0.10624   0.10912   0.11687

 Mulliken charges:
               1
     1  C    0.436402
     2  C    0.279669
     3  C    0.540647
     4  C    0.068702
     5  S    0.460531
     6  H   -0.367684
     7  C    0.287658
     8  S    0.445936
     9  C   -0.699289
    10  C   -0.178489
    11  C    0.322328
    12  H   -0.502401
    13  S    0.575319
    14  C   -0.156992
    15  C    0.513957
    16  H   -0.368938
    17  H   -0.332861
    18  H   -0.609993
    19  O   -0.846689
    20  H    0.132185
 Sum of Mulliken charges =  -0.00000

 Dipole moment (field-independent basis, Debye):
    X=              1.1982    Y=              1.7590    Z=              0.5412  Tot=              2.1961
 Quadrupole moment (field-independent basis, Debye-Ang):
   XX=            -96.5046   YY=            -93.8289   ZZ=           -109.3064
   XY=              0.3228   XZ=             -1.8865   YZ=              1.1274

 Normal termination of Gaussian 16 at Mon Nov  1 12:08:54 2021.
