 Gaussian 16, Revision C.01,
 Gaussian 16:  ES64L-G16RevC.01  3-Jul-2019

 -----------------
 # mp2/aug-cc-pvdz
 -----------------

 ---------------
 pgT2_TT_140.pdb
 ---------------
 Symbolic Z-matrix:
 Charge =  0 Multiplicity = 1

                         Standard orientation:
 ---------------------------------------------------------------------
 Center     Atomic      Atomic             Coordinates (Angstroms)
 Number     Number       Type             X           Y           Z
 ---------------------------------------------------------------------
      1          6           0        3.759615    0.728651   -0.190979
      2          6           0        2.369726    1.009221   -0.380948
      3          6           0        1.569343   -0.000649    0.018613
      4          6           0        3.989150   -0.491637    0.338559
      5         16           0        2.498834   -1.331222    0.638147
      6          1           0        4.938977   -0.942061    0.558437
      7          6           0        0.099334   -0.030113   -0.011482
      8         16           0       -0.771156   -1.479619   -0.482095
      9          6           0       -2.290884   -0.679167   -0.251870
     10          6           0       -2.110442    0.620617    0.138647
     11          6           0       -0.730319    0.990066    0.288869
     12          1           0       -0.389992    1.959812    0.629266
     13         16           0       -3.630170    1.421066    0.378873
     14          6           0       -4.490662   -0.028448   -0.081740
     15          6           0       -3.671012   -1.058620   -0.392095
     16          1           0       -5.560661   -0.028063   -0.091801
     17          1           0       -4.011341   -2.028382   -0.692492
     18          1           0        2.000076    1.919528   -0.830615
     19          8           0        4.759936    1.578419   -0.510591
     20          1           0        4.420240    2.368692   -0.900303
 ---------------------------------------------------------------------

 SCF Done:  E(RHF) =  -1649.64257830     A.U. after   17 cycles
 E2 =    -0.1968300394D+01 EUMP2 =    -0.16516108786917D+04

 The electronic state is 1-A.
 Alpha  occ. eigenvalues --  -91.99528 -91.99478 -91.98936 -20.60803 -11.31349
 Alpha  occ. eigenvalues --  -11.29519 -11.29442 -11.28184 -11.27827 -11.27686
 Alpha  occ. eigenvalues --  -11.26383 -11.26205 -11.25603 -11.25349  -8.99711
 Alpha  occ. eigenvalues --   -8.99654  -8.99132  -6.67876  -6.67822  -6.67796
 Alpha  occ. eigenvalues --   -6.67743  -6.67584  -6.67537  -6.67300  -6.67210
 Alpha  occ. eigenvalues --   -6.67010  -1.42661  -1.22230  -1.18720  -1.13263
 Alpha  occ. eigenvalues --   -1.03291  -1.02584  -0.99170  -0.96217  -0.94953
 Alpha  occ. eigenvalues --   -0.84252  -0.78797  -0.77842  -0.74723  -0.73050
 Alpha  occ. eigenvalues --   -0.72113  -0.67720  -0.66293  -0.61249  -0.60733
 Alpha  occ. eigenvalues --   -0.58199  -0.57460  -0.56373  -0.54906  -0.53962
 Alpha  occ. eigenvalues --   -0.52805  -0.51276  -0.50217  -0.48429  -0.46934
 Alpha  occ. eigenvalues --   -0.46584  -0.39482  -0.35782  -0.33284  -0.32643
 Alpha  occ. eigenvalues --   -0.29069
 Alpha virt. eigenvalues --    0.02899   0.03379   0.04500   0.04778   0.04879
 Alpha virt. eigenvalues --    0.05813   0.07067   0.08273   0.08301   0.09248
 Alpha virt. eigenvalues --    0.09576   0.10220   0.10729   0.10991   0.11590

 Mulliken charges:
               1
     1  C    0.417634
     2  C    0.287197
     3  C    0.470758
     4  C    0.076054
     5  S    0.487056
     6  H   -0.359237
     7  C    0.221469
     8  S    0.436786
     9  C   -0.781584
    10  C   -0.126294
    11  C    0.193192
    12  H   -0.442547
    13  S    0.602681
    14  C   -0.054618
    15  C    0.551124
    16  H   -0.390232
    17  H   -0.332379
    18  H   -0.546671
    19  O   -0.845513
    20  H    0.135125
 Sum of Mulliken charges =  -0.00000

 Dipole moment (field-independent basis, Debye):
    X=             -1.2609    Y=              1.5096    Z=             -0.7836  Tot=              2.1173
 Quadrupole moment (field-independent basis, Debye-Ang):
   XX=            -96.6265   YY=            -95.0152   ZZ=           -108.0277
   XY=              6.9350   XZ=             -0.2436   YZ=             -1.7356

 Normal termination of Gaussian 16 at Mon Nov  1 12:25:41 2021.
