 Gaussian 16, Revision C.01,
 Gaussian 16:  ES64L-G16RevC.01  3-Jul-2019

 -----------------
 # mp2/aug-cc-pvdz
 -----------------

 ---------------
 pgT2_TT_-65.pdb
 ---------------
 Symbolic Z-matrix:
 Charge =  0 Multiplicity = 1

                         Standard orientation:
 ---------------------------------------------------------------------
 Center     Atomic      Atomic             Coordinates (Angstroms)
 Number     Number       Type             X           Y           Z
 ---------------------------------------------------------------------
      1          6           0       -3.819490    0.309459    0.430327
      2          6           0       -2.449530    0.699085    0.671160
      3          6           0       -1.569425   -0.069783   -0.000000
      4          6           0       -3.929360   -0.749177   -0.391450
      5         16           0       -2.369278   -1.298266   -0.922153
      6          1           0       -4.839307   -1.238661   -0.712387
      7          6           0       -0.099429    0.020210    0.020348
      8         16           0        0.700632    1.451304   -0.627165
      9          6           0        2.260596    0.760735   -0.268102
     10          6           0        2.130545   -0.480180    0.279818
     11          6           0        0.780531   -0.910471    0.438920
     12          1           0        0.480492   -1.861173    0.857299
     13         16           0        3.690510   -1.160733    0.628897
     14          6           0        4.480566    0.270294    0.021383
     15          6           0        3.620609    1.201026   -0.427186
     16          1           0        5.550565    0.320314    0.021611
     17          1           0        3.920647    2.151712   -0.835565
     18          1           0       -2.159632    1.518025    1.312562
     19          8           0       -4.889577    0.908508    0.991179
     20          1           0       -4.619660    1.657663    1.502463
 ---------------------------------------------------------------------

 SCF Done:  E(RHF) =  -1649.64217364     A.U. after   17 cycles
 E2 =    -0.1966433149D+01 EUMP2 =    -0.16516086067904D+04

 The electronic state is 1-A.
 Alpha  occ. eigenvalues --  -91.99504 -91.99321 -91.98899 -20.60814 -11.31335
 Alpha  occ. eigenvalues --  -11.29379 -11.29270 -11.28047 -11.27748 -11.27525
 Alpha  occ. eigenvalues --  -11.26240 -11.26096 -11.25586 -11.25478  -8.99640
 Alpha  occ. eigenvalues --   -8.99510  -8.99090  -6.67801  -6.67722  -6.67676
 Alpha  occ. eigenvalues --   -6.67598  -6.67513  -6.67391  -6.67258  -6.67166
 Alpha  occ. eigenvalues --   -6.66966  -1.42711  -1.22245  -1.18663  -1.13260
 Alpha  occ. eigenvalues --   -1.02916  -1.02804  -0.99053  -0.96149  -0.94976
 Alpha  occ. eigenvalues --   -0.84175  -0.78406  -0.77932  -0.75079  -0.72666
 Alpha  occ. eigenvalues --   -0.71880  -0.67501  -0.66275  -0.61209  -0.60726
 Alpha  occ. eigenvalues --   -0.58410  -0.57603  -0.56820  -0.54730  -0.54084
 Alpha  occ. eigenvalues --   -0.52524  -0.51049  -0.49590  -0.48460  -0.46763
 Alpha  occ. eigenvalues --   -0.46511  -0.39332  -0.35296  -0.33010  -0.32432
 Alpha  occ. eigenvalues --   -0.30141
 Alpha virt. eigenvalues --    0.03092   0.03376   0.04420   0.04741   0.04851
 Alpha virt. eigenvalues --    0.06371   0.07212   0.08238   0.08320   0.08832
 Alpha virt. eigenvalues --    0.09739   0.10010   0.10477   0.10905   0.11407

 Mulliken charges:
               1
     1  C    0.537813
     2  C    0.241965
     3  C    0.436561
     4  C    0.057097
     5  S    0.407002
     6  H   -0.338865
     7  C    0.387102
     8  S    0.386239
     9  C   -0.728610
    10  C   -0.279135
    11  C    0.179499
    12  H   -0.442596
    13  S    0.637743
    14  C   -0.070694
    15  C    0.545667
    16  H   -0.386437
    17  H   -0.319750
    18  H   -0.543177
    19  O   -0.846003
    20  H    0.138578
 Sum of Mulliken charges =  -0.00000

 Dipole moment (field-independent basis, Debye):
    X=              1.0803    Y=              1.5044    Z=              1.0757  Tot=              2.1418
 Quadrupole moment (field-independent basis, Debye-Ang):
   XX=            -96.3583   YY=            -97.6625   ZZ=           -105.3460
   XY=              0.7006   XZ=             -3.9242   YZ=              2.1593

 Normal termination of Gaussian 16 at Mon Nov  1 12:06:38 2021.
