 Gaussian 16, Revision C.01,
 Gaussian 16:  ES64L-G16RevC.01  3-Jul-2019

 -----------------
 # mp2/aug-cc-pvdz
 -----------------

 ---------------
 pgT2_TT_155.pdb
 ---------------
 Symbolic Z-matrix:
 Charge =  0 Multiplicity = 1

                         Standard orientation:
 ---------------------------------------------------------------------
 Center     Atomic      Atomic             Coordinates (Angstroms)
 Number     Number       Type             X           Y           Z
 ---------------------------------------------------------------------
      1          6           0        3.759671    0.750063   -0.109591
      2          6           0        2.369721    1.060603   -0.268979
      3          6           0        1.569505    0.000470   -0.020235
      4          6           0        3.989421   -0.520459    0.248725
      5         16           0        2.499238   -1.400335    0.427806
      6          1           0        4.939332   -1.000906    0.417958
      7          6           0        0.099495   -0.029152   -0.040053
      8         16           0       -0.780906   -1.518551   -0.341855
      9          6           0       -2.290682   -0.688411   -0.170550
     10          6           0       -2.110327    0.631207    0.091137
     11          6           0       -0.730222    1.020773    0.171435
     12          1           0       -0.389949    2.010379    0.412670
     13         16           0       -3.620103    1.461347    0.262442
     14          6           0       -4.490503   -0.028068   -0.029362
     15          6           0       -3.670786   -1.077990   -0.240848
     16          1           0       -5.560502   -0.027825   -0.019201
     17          1           0       -4.031055   -2.077643   -0.442093
     18          1           0        1.999903    2.021106   -0.587676
     19          8           0        4.759855    1.650096   -0.318573
     20          1           0        4.420012    2.480540   -0.597444
 ---------------------------------------------------------------------

 SCF Done:  E(RHF) =  -1649.64179290     A.U. after   17 cycles
 E2 =    -0.1967446936D+01 EUMP2 =    -0.16516092398337D+04

 The electronic state is 1-A.
 Alpha  occ. eigenvalues --  -91.99582 -91.99413 -91.98981 -20.60629 -11.31381
 Alpha  occ. eigenvalues --  -11.29702 -11.29621 -11.28127 -11.27739 -11.27589
 Alpha  occ. eigenvalues --  -11.26386 -11.26236 -11.25674 -11.25366  -8.99779
 Alpha  occ. eigenvalues --   -8.99603  -8.99181  -6.67944  -6.67865  -6.67771
 Alpha  occ. eigenvalues --   -6.67692  -6.67651  -6.67485  -6.67351  -6.67259
 Alpha  occ. eigenvalues --   -6.67058  -1.42216  -1.22459  -1.18817  -1.13331
 Alpha  occ. eigenvalues --   -1.03425  -1.02737  -0.99211  -0.96303  -0.95014
 Alpha  occ. eigenvalues --   -0.84344  -0.78780  -0.77917  -0.74636  -0.73192
 Alpha  occ. eigenvalues --   -0.72071  -0.67757  -0.66249  -0.61284  -0.60513
 Alpha  occ. eigenvalues --   -0.58133  -0.57543  -0.56498  -0.54935  -0.53604
 Alpha  occ. eigenvalues --   -0.52985  -0.51551  -0.50429  -0.48458  -0.47004
 Alpha  occ. eigenvalues --   -0.46598  -0.39661  -0.36064  -0.33700  -0.32651
 Alpha  occ. eigenvalues --   -0.28768
 Alpha virt. eigenvalues --    0.02877   0.03369   0.04467   0.04777   0.04956
 Alpha virt. eigenvalues --    0.05578   0.06993   0.08303   0.08378   0.09172
 Alpha virt. eigenvalues --    0.09915   0.10132   0.10731   0.11081   0.11731

 Mulliken charges:
               1
     1  C    0.399027
     2  C    0.393896
     3  C    0.434197
     4  C    0.056343
     5  S    0.505922
     6  H   -0.361184
     7  C    0.039320
     8  S    0.465126
     9  C   -0.677167
    10  C   -0.082252
    11  C    0.429389
    12  H   -0.491970
    13  S    0.559434
    14  C   -0.110399
    15  C    0.427023
    16  H   -0.392249
    17  H   -0.318760
    18  H   -0.552338
    19  O   -0.852014
    20  H    0.128657
 Sum of Mulliken charges =  -0.00000

 Dipole moment (field-independent basis, Debye):
    X=             -1.3325    Y=              1.5187    Z=             -0.5032  Tot=              2.0821
 Quadrupole moment (field-independent basis, Debye-Ang):
   XX=            -96.8250   YY=            -93.7872   ZZ=           -109.3424
   XY=              6.9211   XZ=             -0.2518   YZ=             -1.4340

 Normal termination of Gaussian 16 at Mon Nov  1 12:29:22 2021.
