 Gaussian 16, Revision C.01,
 Gaussian 16:  ES64L-G16RevC.01  3-Jul-2019

 ---------------------------------
 # opt=modredundant hf/aug-cc-pvdz
 ---------------------------------

 -------------
 pBTTT_-45.pdb
 -------------
 Symbolic Z-matrix:
 Charge =  0 Multiplicity = 1

 SCF Done:  E(RHF) =  -1613.75320619     A.U. after   17 cycles
 SCF Done:  E(RHF) =  -1613.79519497     A.U. after   16 cycles
 SCF Done:  E(RHF) =  -1613.80935096     A.U. after   15 cycles
 SCF Done:  E(RHF) =  -1613.81210883     A.U. after   15 cycles
 SCF Done:  E(RHF) =  -1613.81254331     A.U. after   15 cycles
 SCF Done:  E(RHF) =  -1613.81334913     A.U. after   14 cycles
 SCF Done:  E(RHF) =  -1613.81347638     A.U. after   14 cycles
 SCF Done:  E(RHF) =  -1613.81358111     A.U. after   14 cycles
 SCF Done:  E(RHF) =  -1613.81370073     A.U. after   13 cycles
 SCF Done:  E(RHF) =  -1613.81390316     A.U. after   14 cycles
 SCF Done:  E(RHF) =  -1613.81402347     A.U. after   13 cycles
 SCF Done:  E(RHF) =  -1613.81406961     A.U. after   13 cycles
 SCF Done:  E(RHF) =  -1613.81409362     A.U. after   12 cycles
 SCF Done:  E(RHF) =  -1613.81409509     A.U. after   11 cycles
 SCF Done:  E(RHF) =  -1613.81409522     A.U. after    9 cycles
 SCF Done:  E(RHF) =  -1613.81409526     A.U. after    9 cycles
 SCF Done:  E(RHF) =  -1613.81409527     A.U. after    8 cycles
 Optimization completed.
    -- Stationary point found.

                         Standard orientation:
 ---------------------------------------------------------------------
 Center     Atomic      Atomic             Coordinates (Angstroms)
 Number     Number       Type             X           Y           Z
 ---------------------------------------------------------------------
      1          6           0       -4.026675    0.283234    0.236517
      2          6           0       -2.688359    0.797342    0.395689
      3          6           0       -1.750416   -0.120025    0.041134
      4          6           0       -2.438041    2.183692    0.932903
      5          6           0       -4.070308   -0.981890   -0.225848
      6          1           0       -4.908042    0.857365    0.479859
      7         16           0       -2.487867   -1.607563   -0.507726
      8          1           0       -4.941298   -1.585909   -0.415558
      9          6           0       -0.282584   -0.018616    0.016103
     10         16           0        0.523611    1.394116   -0.655818
     11          6           0        2.081188    0.696613   -0.337182
     12          6           0        1.957450   -0.536911    0.231384
     13          6           0        0.602930   -0.952607    0.438876
     14          1           0        0.307034   -1.886721    0.887454
     15         16           0        3.514785   -1.235304    0.555794
     16          6           0        4.303629    0.177940   -0.094984
     17          6           0        3.439095    1.118838   -0.528789
     18          1           0        5.379230    0.223056   -0.117656
     19          1           0        3.740818    2.058263   -0.962435
     20          1           0       -3.152254    2.407938    1.724872
     21          1           0       -2.564533    2.935349    0.151843
     22          1           0       -1.436873    2.285028    1.340808
 ---------------------------------------------------------------------

 The electronic state is 1-A.
 Alpha  occ. eigenvalues --  -91.99063 -91.99038 -91.98432 -11.29018 -11.27783
 Alpha  occ. eigenvalues --  -11.27739 -11.27315 -11.27171 -11.27112 -11.25834
 Alpha  occ. eigenvalues --  -11.25674 -11.25549 -11.24365 -11.23635  -8.99234
 Alpha  occ. eigenvalues --   -8.99221  -8.98663  -6.67399  -6.67387  -6.67319
 Alpha  occ. eigenvalues --   -6.67309  -6.67111  -6.67103  -6.66829  -6.66736
 Alpha  occ. eigenvalues --   -6.66544  -1.21800  -1.18620  -1.12895  -1.03939
 Alpha  occ. eigenvalues --   -1.02690  -1.01716  -0.95629  -0.94752  -0.91965
 Alpha  occ. eigenvalues --   -0.82204  -0.77718  -0.76592  -0.72016  -0.70249
 Alpha  occ. eigenvalues --   -0.67447  -0.66915  -0.60562  -0.59159  -0.58916
 Alpha  occ. eigenvalues --   -0.56783  -0.56408  -0.54829  -0.53812  -0.52508
 Alpha  occ. eigenvalues --   -0.51671  -0.51327  -0.49620  -0.47264  -0.46495
 Alpha  occ. eigenvalues --   -0.46036  -0.39045  -0.34850  -0.34132  -0.32298
 Alpha  occ. eigenvalues --   -0.28806
 Alpha virt. eigenvalues --    0.03447   0.03483   0.04128   0.04813   0.04840
 Alpha virt. eigenvalues --    0.05870   0.06006   0.07218   0.07605   0.08591
 Alpha virt. eigenvalues --    0.09097   0.09458   0.10396   0.10572   0.11194

 Mulliken charges:
               1
     1  C    0.530556
     2  C   -0.912714
     3  C    0.910804
     4  C    0.545895
     5  C   -0.290879
     6  H   -0.490716
     7  S    0.394664
     8  H   -0.359697
     9  C    0.078594
    10  S    0.362105
    11  C   -0.688858
    12  C   -0.255281
    13  C    0.310489
    14  H   -0.503892
    15  S    0.584993
    16  C   -0.104867
    17  C    0.561106
    18  H   -0.383788
    19  H   -0.327135
    20  H   -0.081181
    21  H    0.126888
    22  H   -0.007085
 Sum of Mulliken charges =  -0.00000

 Dipole moment (field-independent basis, Debye):
    X=             -0.5073    Y=              1.1609    Z=              0.4603  Tot=              1.3480
 Quadrupole moment (field-independent basis, Debye-Ang):
   XX=            -86.3597   YY=           -100.5814   ZZ=           -109.5154
   XY=              2.2909   XZ=             -2.9059   YZ=             -0.9310

 Normal termination of Gaussian 16 at Tue Oct 26 00:51:16 2021.
