 Gaussian 16, Revision C.01,
 Gaussian 16:  ES64L-G16RevC.01  3-Jul-2019

 ---------------------------------
 # opt=modredundant hf/aug-cc-pvdz
 ---------------------------------

 -----------
 pBTTT_0.pdb
 -----------
 Symbolic Z-matrix:
 Charge =  0 Multiplicity = 1

 SCF Done:  E(RHF) =  -1613.75325579     A.U. after   18 cycles
 SCF Done:  E(RHF) =  -1613.79426651     A.U. after   16 cycles
 SCF Done:  E(RHF) =  -1613.80774332     A.U. after   16 cycles
 SCF Done:  E(RHF) =  -1613.81052091     A.U. after   16 cycles
 SCF Done:  E(RHF) =  -1613.81127475     A.U. after   15 cycles
 SCF Done:  E(RHF) =  -1613.81158281     A.U. after   15 cycles
 SCF Done:  E(RHF) =  -1613.81179108     A.U. after   14 cycles
 SCF Done:  E(RHF) =  -1613.81177972     A.U. after   13 cycles
 SCF Done:  E(RHF) =  -1613.81180503     A.U. after   11 cycles
 SCF Done:  E(RHF) =  -1613.81180606     A.U. after   10 cycles
 SCF Done:  E(RHF) =  -1613.81180671     A.U. after   10 cycles
 SCF Done:  E(RHF) =  -1613.81180724     A.U. after    9 cycles
 SCF Done:  E(RHF) =  -1613.81180753     A.U. after    9 cycles
 SCF Done:  E(RHF) =  -1613.81180759     A.U. after    9 cycles
 Optimization completed.
    -- Stationary point found.

                         Standard orientation:
 ---------------------------------------------------------------------
 Center     Atomic      Atomic             Coordinates (Angstroms)
 Number     Number       Type             X           Y           Z
 ---------------------------------------------------------------------
      1          6           0       -4.042553    0.257685   -0.000132
      2          6           0       -2.720994    0.834085    0.000082
      3          6           0       -1.748771   -0.121673    0.000045
      4          6           0       -2.530834    2.331798    0.000193
      5          6           0       -4.050641   -1.088617   -0.000056
      6          1           0       -4.939999    0.856991   -0.000199
      7         16           0       -2.449806   -1.727046   -0.000022
      8          1           0       -4.902057   -1.747354   -0.000092
      9          6           0       -0.284463   -0.005368    0.000049
     10         16           0        0.541342    1.554602   -0.000119
     11          6           0        2.091452    0.777562   -0.000048
     12          6           0        1.958492   -0.578665    0.000031
     13          6           0        0.603542   -1.032796    0.000102
     14          1           0        0.315896   -2.070850    0.000177
     15         16           0        3.510670   -1.359078    0.000027
     16          6           0        4.309930    0.192369    0.000014
     17          6           0        3.451486    1.233599   -0.000038
     18          1           0        5.385766    0.236010   -0.000041
     19          1           0        3.759387    2.266475   -0.000126
     20          1           0       -3.500482    2.825196    0.000230
     21          1           0       -1.986846    2.669062   -0.881256
     22          1           0       -1.986823    2.668947    0.881659
 ---------------------------------------------------------------------

 The electronic state is 1-A.
 Alpha  occ. eigenvalues --  -91.99127 -91.99003 -91.98476 -11.29366 -11.28108
 Alpha  occ. eigenvalues --  -11.27715 -11.27288 -11.27229 -11.27087 -11.25827
 Alpha  occ. eigenvalues --  -11.25753 -11.25491 -11.24483 -11.23880  -8.99312
 Alpha  occ. eigenvalues --   -8.99184  -8.98742  -6.67478  -6.67400  -6.67350
 Alpha  occ. eigenvalues --   -6.67273  -6.67187  -6.67066  -6.66915  -6.66821
 Alpha  occ. eigenvalues --   -6.66627  -1.21837  -1.18737  -1.12894  -1.04192
 Alpha  occ. eigenvalues --   -1.02841  -1.01794  -0.95550  -0.94759  -0.92268
 Alpha  occ. eigenvalues --   -0.82358  -0.78040  -0.76695  -0.71586  -0.70512
 Alpha  occ. eigenvalues --   -0.67691  -0.66990  -0.60479  -0.59333  -0.59104
 Alpha  occ. eigenvalues --   -0.56785  -0.56613  -0.55025  -0.53967  -0.52156
 Alpha  occ. eigenvalues --   -0.52106  -0.51701  -0.49648  -0.47156  -0.46842
 Alpha  occ. eigenvalues --   -0.45767  -0.39434  -0.35721  -0.34420  -0.32347
 Alpha  occ. eigenvalues --   -0.27639
 Alpha virt. eigenvalues --    0.03401   0.03455   0.03986   0.04755   0.05027
 Alpha virt. eigenvalues --    0.05956   0.06081   0.06483   0.07415   0.08445
 Alpha virt. eigenvalues --    0.09653   0.10028   0.10327   0.10737   0.11076

 Mulliken charges:
               1
     1  C    0.531342
     2  C   -0.672093
     3  C    0.461856
     4  C    0.654676
     5  C   -0.322054
     6  H   -0.541139
     7  S    0.630243
     8  H   -0.393732
     9  C   -0.103018
    10  S    0.532877
    11  C   -0.827170
    12  C   -0.124070
    13  C    0.474424
    14  H   -0.547612
    15  S    0.491694
    16  C   -0.171149
    17  C    0.515810
    18  H   -0.395219
    19  H   -0.331686
    20  H   -0.239628
    21  H    0.187848
    22  H    0.187800
 Sum of Mulliken charges =  -0.00000

 Dipole moment (field-independent basis, Debye):
    X=             -0.6689    Y=              1.2644    Z=             -0.0001  Tot=              1.4304
 Quadrupole moment (field-independent basis, Debye-Ang):
   XX=            -85.8330   YY=            -98.4824   ZZ=           -111.7900
   XY=              2.3593   XZ=             -0.0004   YZ=             -0.0003

 Normal termination of Gaussian 16 at Tue Oct 26 01:07:24 2021.
