 Gaussian 16, Revision C.01,
 Gaussian 16:  ES64L-G16RevC.01  3-Jul-2019

 ---------------------------------
 # opt=modredundant hf/aug-cc-pvdz
 ---------------------------------

 --------------
 pBTTT_-140.pdb
 --------------
 Symbolic Z-matrix:
 Charge =  0 Multiplicity = 1

 SCF Done:  E(RHF) =  -1613.75122029     A.U. after   18 cycles
 SCF Done:  E(RHF) =  -1613.79331474     A.U. after   16 cycles
 SCF Done:  E(RHF) =  -1613.80816946     A.U. after   16 cycles
 SCF Done:  E(RHF) =  -1613.81120804     A.U. after   16 cycles
 SCF Done:  E(RHF) =  -1613.81195303     A.U. after   14 cycles
 SCF Done:  E(RHF) =  -1613.81294375     A.U. after   14 cycles
 SCF Done:  E(RHF) =  -1613.81309012     A.U. after   14 cycles
 SCF Done:  E(RHF) =  -1613.81342927     A.U. after   13 cycles
 SCF Done:  E(RHF) =  -1613.81374068     A.U. after   12 cycles
 SCF Done:  E(RHF) =  -1613.81399215     A.U. after   13 cycles
 SCF Done:  E(RHF) =  -1613.81405328     A.U. after   13 cycles
 SCF Done:  E(RHF) =  -1613.81406902     A.U. after   12 cycles
 SCF Done:  E(RHF) =  -1613.81407263     A.U. after   11 cycles
 SCF Done:  E(RHF) =  -1613.81407299     A.U. after   10 cycles
 SCF Done:  E(RHF) =  -1613.81407324     A.U. after    9 cycles
 Optimization completed.
    -- Stationary point found.

                         Standard orientation:
 ---------------------------------------------------------------------
 Center     Atomic      Atomic             Coordinates (Angstroms)
 Number     Number       Type             X           Y           Z
 ---------------------------------------------------------------------
      1          6           0        3.959925    0.751420    0.068839
      2          6           0        2.571673    1.074647    0.286392
      3          6           0        1.756055    0.029806   -0.016315
      4          6           0        2.144726    2.418018    0.818362
      5          6           0        4.158418   -0.503868   -0.379488
      6          1           0        4.762670    1.447071    0.261932
      7         16           0        2.669885   -1.353424   -0.574176
      8          1           0        5.095241   -0.984607   -0.604412
      9          6           0        0.288607   -0.029251    0.022126
     10         16           0       -0.529408   -1.470472    0.618773
     11          6           0       -2.080322   -0.762058    0.291848
     12          6           0       -1.946620    0.491117   -0.229286
     13          6           0       -0.588386    0.913758   -0.396964
     14          1           0       -0.288005    1.852118   -0.831567
     15         16           0       -3.498055    1.201594   -0.556942
     16          6           0       -4.298420   -0.233667    0.029058
     17          6           0       -3.441506   -1.189349    0.445076
     18          1           0       -5.374187   -0.280038    0.028178
     19          1           0       -3.750547   -2.144028    0.838309
     20          1           0        2.861648    2.771777    1.558793
     21          1           0        1.165909    2.368749    1.287780
     22          1           0        2.103620    3.162336    0.020617
 ---------------------------------------------------------------------

 The electronic state is 1-A.
 Alpha  occ. eigenvalues --  -91.99070 -91.98977 -91.98448 -11.29031 -11.27777
 Alpha  occ. eigenvalues --  -11.27769 -11.27322 -11.27170 -11.27158 -11.25823
 Alpha  occ. eigenvalues --  -11.25745 -11.25589 -11.24413 -11.23869  -8.99250
 Alpha  occ. eigenvalues --   -8.99151  -8.98684  -6.67417  -6.67339  -6.67316
 Alpha  occ. eigenvalues --   -6.67235  -6.67133  -6.67026  -6.66850  -6.66757
 Alpha  occ. eigenvalues --   -6.66565  -1.21802  -1.18664  -1.12892  -1.04154
 Alpha  occ. eigenvalues --   -1.02442  -1.01846  -0.95895  -0.94571  -0.92053
 Alpha  occ. eigenvalues --   -0.82265  -0.77357  -0.76760  -0.72755  -0.70055
 Alpha  occ. eigenvalues --   -0.67438  -0.66892  -0.60730  -0.59187  -0.58968
 Alpha  occ. eigenvalues --   -0.56706  -0.56338  -0.54687  -0.54096  -0.52532
 Alpha  occ. eigenvalues --   -0.51969  -0.51158  -0.49464  -0.47360  -0.46633
 Alpha  occ. eigenvalues --   -0.46048  -0.39066  -0.34974  -0.34183  -0.32290
 Alpha  occ. eigenvalues --   -0.28702
 Alpha virt. eigenvalues --    0.03384   0.03525   0.04048   0.04866   0.04945
 Alpha virt. eigenvalues --    0.05471   0.06734   0.07186   0.07684   0.08424
 Alpha virt. eigenvalues --    0.08745   0.09615   0.10126   0.10778   0.11104

 Mulliken charges:
               1
     1  C    0.542440
     2  C   -0.772115
     3  C    0.638020
     4  C    0.502436
     5  C   -0.278491
     6  H   -0.484844
     7  S    0.414487
     8  H   -0.360923
     9  C    0.190684
    10  S    0.419378
    11  C   -0.720937
    12  C   -0.341893
    13  C    0.349034
    14  H   -0.486263
    15  S    0.593100
    16  C   -0.073830
    17  C    0.563271
    18  H   -0.382713
    19  H   -0.328133
    20  H   -0.106298
    21  H   -0.003731
    22  H    0.127320
 Sum of Mulliken charges =  -0.00000

 Dipole moment (field-independent basis, Debye):
    X=              0.4057    Y=              1.1238    Z=              0.3444  Tot=              1.2435
 Quadrupole moment (field-independent basis, Debye-Ang):
   XX=            -86.7256   YY=           -100.1085   ZZ=           -109.8224
   XY=              6.7570   XZ=             -1.3349   YZ=             -0.8035

 1\1\GINC-CX3-12-20\FOpt\RHF\Aug-CC-pVDZ\C11H8S3\NS5018\25-Oct-2021\0\\
 # opt=modredundant hf/aug-cc-pvdz\\pBTTT_-140.pdb\\0,1\C,-4.1595763484
 ,-1.4030070623,0.0105430757\C,-2.9087571128,-0.9876750624,-0.574264400
 2\C,-2.0462803031,-2.0292095599,-0.7153141159\C,-2.6625162516,0.440099
 0929,-0.9874810121\C,-4.2148423627,-2.7205361238,0.2884076521\H,-4.977
 5823002,-0.72255613,0.1934862891\S,-2.7466193457,-3.522252047,-0.13224
 63325\H,-5.0360274923,-3.2721352755,0.7135318993\C,-0.6663483078,-2.01
 54834483,-1.2192679679\S,-0.0880048204,-3.3076207364,-2.267195577\C,1.

 Normal termination of Gaussian 16 at Mon Oct 25 22:53:57 2021.
