 Gaussian 16, Revision C.01,
 Gaussian 16:  ES64L-G16RevC.01  3-Jul-2019

 ---------------------------------
 # opt=modredundant hf/aug-cc-pvdz
 ---------------------------------

 -------------
 pBTTT_175.pdb
 -------------
 Symbolic Z-matrix:
 Charge =  0 Multiplicity = 1

 SCF Done:  E(RHF) =  -1613.75230344     A.U. after   18 cycles
 SCF Done:  E(RHF) =  -1613.79306779     A.U. after   16 cycles
 SCF Done:  E(RHF) =  -1613.80641261     A.U. after   16 cycles
 SCF Done:  E(RHF) =  -1613.80929478     A.U. after   16 cycles
 SCF Done:  E(RHF) =  -1613.81014033     A.U. after   14 cycles
 SCF Done:  E(RHF) =  -1613.81025965     A.U. after   13 cycles
 SCF Done:  E(RHF) =  -1613.81054644     A.U. after   14 cycles
 SCF Done:  E(RHF) =  -1613.81053140     A.U. after   12 cycles
 SCF Done:  E(RHF) =  -1613.81056463     A.U. after   11 cycles
 SCF Done:  E(RHF) =  -1613.81056709     A.U. after   11 cycles
 SCF Done:  E(RHF) =  -1613.81056911     A.U. after   11 cycles
 SCF Done:  E(RHF) =  -1613.81057017     A.U. after   11 cycles
 SCF Done:  E(RHF) =  -1613.81057048     A.U. after    9 cycles
 SCF Done:  E(RHF) =  -1613.81057055     A.U. after    9 cycles
 Optimization completed.
    -- Stationary point found.

                         Standard orientation:
 ---------------------------------------------------------------------
 Center     Atomic      Atomic             Coordinates (Angstroms)
 Number     Number       Type             X           Y           Z
 ---------------------------------------------------------------------
      1          6           0       -3.965711    0.775016   -0.009399
      2          6           0       -2.576359    1.144631    0.045904
      3          6           0       -1.755627    0.054131    0.014721
      4          6           0       -2.156759    2.589049    0.142034
      5          6           0       -4.173360   -0.554809   -0.083412
      6          1           0       -4.764635    1.500294    0.010631
      7         16           0       -2.687261   -1.422788   -0.093571
      8          1           0       -5.112486   -1.078573   -0.131261
      9          6           0       -0.287437   -0.011109    0.025085
     10         16           0        0.518590   -1.579843    0.111068
     11          6           0        2.079738   -0.827486    0.047370
     12          6           0        1.963049    0.527310   -0.033167
     13          6           0        0.613814    1.003519   -0.050614
     14          1           0        0.353306    2.041428   -0.128699
     15         16           0        3.525161    1.286324   -0.095901
     16          6           0        4.304993   -0.272272   -0.010068
     17          6           0        3.433690   -1.300392    0.061675
     18          1           0        5.380148   -0.329861   -0.018610
     19          1           0        3.728462   -2.335319    0.121046
     20          1           0       -3.030725    3.221635    0.282162
     21          1           0       -1.651870    2.920718   -0.766435
     22          1           0       -1.486240    2.755071    0.984850
 ---------------------------------------------------------------------

 The electronic state is 1-A.
 Alpha  occ. eigenvalues --  -91.99042 -91.98915 -91.98569 -11.29431 -11.28132
 Alpha  occ. eigenvalues --  -11.27751 -11.27277 -11.27188 -11.27126 -11.25826
 Alpha  occ. eigenvalues --  -11.25714 -11.25619 -11.24514 -11.24272  -8.99223
 Alpha  occ. eigenvalues --   -8.99121  -8.98835  -6.67391  -6.67313  -6.67289
 Alpha  occ. eigenvalues --   -6.67207  -6.67107  -6.67004  -6.66994  -6.66911
 Alpha  occ. eigenvalues --   -6.66718  -1.21819  -1.18802  -1.12874  -1.04431
 Alpha  occ. eigenvalues --   -1.02448  -1.02027  -0.95938  -0.94500  -0.92392
 Alpha  occ. eigenvalues --   -0.82382  -0.77407  -0.77091  -0.72707  -0.70343
 Alpha  occ. eigenvalues --   -0.67529  -0.66932  -0.60619  -0.59543  -0.59124
 Alpha  occ. eigenvalues --   -0.56707  -0.56406  -0.55031  -0.54269  -0.52432
 Alpha  occ. eigenvalues --   -0.52206  -0.51463  -0.49370  -0.47467  -0.47067
 Alpha  occ. eigenvalues --   -0.45573  -0.39362  -0.35749  -0.34468  -0.32213
 Alpha  occ. eigenvalues --   -0.27721
 Alpha virt. eigenvalues --    0.03312   0.03528   0.03932   0.04918   0.05037
 Alpha virt. eigenvalues --    0.05697   0.06337   0.06660   0.08000   0.08240
 Alpha virt. eigenvalues --    0.09561   0.09751   0.10258   0.10823   0.11338

 Mulliken charges:
               1
     1  C    0.615813
     2  C   -0.316448
     3  C   -0.065423
     4  C    0.569671
     5  C   -0.254199
     6  H   -0.543777
     7  S    0.499368
     8  H   -0.390988
     9  C   -0.430685
    10  S    0.570345
    11  C   -0.556117
    12  C   -0.173202
    13  C    0.979012
    14  H   -0.726903
    15  S    0.499673
    16  C   -0.173235
    17  C    0.463067
    18  H   -0.389041
    19  H   -0.338033
    20  H   -0.317836
    21  H    0.241986
    22  H    0.236952
 Sum of Mulliken charges =  -0.00000

 Dipole moment (field-independent basis, Debye):
    X=             -0.5085    Y=              1.1492    Z=              0.0179  Tot=              1.2568
 Quadrupole moment (field-independent basis, Debye-Ang):
   XX=            -86.4680   YY=            -98.0572   ZZ=           -111.7343
   XY=             -7.1775   XZ=              0.2529   YZ=             -0.0760

 1\1\GINC-CX3-12-16\FOpt\RHF\Aug-CC-pVDZ\C11H8S3\NS5018\26-Oct-2021\0\\
 # opt=modredundant hf/aug-cc-pvdz\\pBTTT_175.pdb\\0,1\C,-4.1869123609,
 -1.3456333518,-0.0809180307\C,-2.8903183924,-1.0021773306,-0.601354482
 9\C,-2.065161526,-2.08728913,-0.6749279556\C,-2.5540421243,0.416438745
 9,-0.9835757072\C,-4.3242651869,-2.6520747616,0.2213650874\H,-4.972823
 7683,-0.6188435235,0.0563079884\S,-2.8828842639,-3.5296897443,-0.11656
 3862\H,-5.1872942561,-3.1531266596,0.62472999\C,-0.6833230937,-2.17887
 33134,-1.1669432221\S,0.1983943908,-3.7019002383,-1.0221507553\C,1.590

 Normal termination of Gaussian 16 at Tue Oct 26 01:23:11 2021.
