 Gaussian 16, Revision C.01,
 Gaussian 16:  ES64L-G16RevC.01  3-Jul-2019

 ---------------------------------
 # opt=modredundant hf/aug-cc-pvdz
 ---------------------------------

 -------------
 pBTTT_125.pdb
 -------------
 Symbolic Z-matrix:
 Charge =  0 Multiplicity = 1

 SCF Done:  E(RHF) =  -1613.75216010     A.U. after   18 cycles
 SCF Done:  E(RHF) =  -1613.79470526     A.U. after   15 cycles
 SCF Done:  E(RHF) =  -1613.80917085     A.U. after   15 cycles
 SCF Done:  E(RHF) =  -1613.81207311     A.U. after   15 cycles
 SCF Done:  E(RHF) =  -1613.81254456     A.U. after   14 cycles
 SCF Done:  E(RHF) =  -1613.81336969     A.U. after   14 cycles
 SCF Done:  E(RHF) =  -1613.81348582     A.U. after   14 cycles
 SCF Done:  E(RHF) =  -1613.81369267     A.U. after   13 cycles
 SCF Done:  E(RHF) =  -1613.81395798     A.U. after   13 cycles
 SCF Done:  E(RHF) =  -1613.81412301     A.U. after   13 cycles
 SCF Done:  E(RHF) =  -1613.81437543     A.U. after   12 cycles
 SCF Done:  E(RHF) =  -1613.81453595     A.U. after   14 cycles
 SCF Done:  E(RHF) =  -1613.81462560     A.U. after   13 cycles
 SCF Done:  E(RHF) =  -1613.81463492     A.U. after   12 cycles
 SCF Done:  E(RHF) =  -1613.81463537     A.U. after   10 cycles
 SCF Done:  E(RHF) =  -1613.81463547     A.U. after    9 cycles
 SCF Done:  E(RHF) =  -1613.81463548     A.U. after    8 cycles
 Optimization completed.
    -- Stationary point found.

                         Standard orientation:
 ---------------------------------------------------------------------
 Center     Atomic      Atomic             Coordinates (Angstroms)
 Number     Number       Type             X           Y           Z
 ---------------------------------------------------------------------
      1          6           0       -3.961099    0.726865    0.126406
      2          6           0       -2.570286    1.029912    0.363165
      3          6           0       -1.757075    0.025801   -0.053838
      4          6           0       -2.136437    2.313167    1.021283
      5          6           0       -4.160037   -0.478317   -0.442548
      6          1           0       -4.763646    1.398203    0.392750
      7         16           0       -2.671387   -1.301880   -0.732098
      8          1           0       -5.098073   -0.935329   -0.708631
      9          6           0       -0.287547   -0.037588   -0.012016
     10         16           0        0.527096   -1.380472    0.782628
     11          6           0        2.079066   -0.713927    0.379765
     12          6           0        1.946890    0.457170   -0.307033
     13          6           0        0.588001    0.846720   -0.542278
     14          1           0        0.282831    1.722669   -1.090472
     15         16           0        3.499189    1.124236   -0.712513
     16          6           0        4.298153   -0.215385    0.068794
     17          6           0        3.440481   -1.110589    0.601241
     18          1           0        5.374051   -0.256256    0.084770
     19          1           0        3.748795   -2.002353    1.122056
     20          1           0       -2.760383    2.518138    1.891459
     21          1           0       -2.241483    3.156402    0.336101
     22          1           0       -1.101139    2.265409    1.346052
 ---------------------------------------------------------------------

 The electronic state is 1-A.
 Alpha  occ. eigenvalues --  -91.99068 -91.98969 -91.98383 -11.28898 -11.27790
 Alpha  occ. eigenvalues --  -11.27631 -11.27312 -11.27168 -11.27159 -11.25817
 Alpha  occ. eigenvalues --  -11.25770 -11.25580 -11.24355 -11.23732  -8.99248
 Alpha  occ. eigenvalues --   -8.99132  -8.98611  -6.67416  -6.67338  -6.67296
 Alpha  occ. eigenvalues --   -6.67215  -6.67131  -6.67007  -6.66777  -6.66684
 Alpha  occ. eigenvalues --   -6.66492  -1.21770  -1.18605  -1.12876  -1.04047
 Alpha  occ. eigenvalues --   -1.02444  -1.01742  -0.95868  -0.94584  -0.91938
 Alpha  occ. eigenvalues --   -0.82191  -0.77347  -0.76608  -0.72757  -0.69990
 Alpha  occ. eigenvalues --   -0.67400  -0.66874  -0.60742  -0.59106  -0.58892
 Alpha  occ. eigenvalues --   -0.56696  -0.56338  -0.54654  -0.53957  -0.52547
 Alpha  occ. eigenvalues --   -0.51858  -0.51041  -0.49478  -0.47351  -0.46415
 Alpha  occ. eigenvalues --   -0.46132  -0.38938  -0.34491  -0.34048  -0.32232
 Alpha  occ. eigenvalues --   -0.29345
 Alpha virt. eigenvalues --    0.03392   0.03520   0.04081   0.04780   0.04937
 Alpha virt. eigenvalues --    0.05501   0.06608   0.07352   0.07921   0.08476
 Alpha virt. eigenvalues --    0.08785   0.09283   0.10250   0.10689   0.11054

 Mulliken charges:
               1
     1  C    0.634182
     2  C   -1.005946
     3  C    0.812607
     4  C    0.504398
     5  C   -0.293873
     6  H   -0.480613
     7  S    0.354595
     8  H   -0.359449
     9  C    0.310057
    10  S    0.391218
    11  C   -0.759731
    12  C   -0.335127
    13  C    0.257562
    14  H   -0.476997
    15  S    0.615157
    16  C   -0.059969
    17  C    0.602527
    18  H   -0.379696
    19  H   -0.328772
    20  H   -0.028924
    21  H    0.107807
    22  H   -0.081014
 Sum of Mulliken charges =  -0.00000

 Dipole moment (field-independent basis, Debye):
    X=             -0.3824    Y=              1.1123    Z=              0.5064  Tot=              1.2806
 Quadrupole moment (field-independent basis, Debye-Ang):
   XX=            -86.8258   YY=           -101.3439   ZZ=           -108.6029
   XY=             -6.3775   XZ=              1.6656   YZ=             -1.0741

 Normal termination of Gaussian 16 at Tue Oct 26 01:49:36 2021.
