 Gaussian 16, Revision C.01,
 Gaussian 16:  ES64L-G16RevC.01  3-Jul-2019

 ---------------------------------
 # opt=modredundant hf/aug-cc-pvdz
 ---------------------------------

 -------------
 pBTTT_-50.pdb
 -------------
 Symbolic Z-matrix:
 Charge =  0 Multiplicity = 1

 SCF Done:  E(RHF) =  -1613.75294100     A.U. after   17 cycles
 SCF Done:  E(RHF) =  -1613.79513437     A.U. after   15 cycles
 SCF Done:  E(RHF) =  -1613.80945441     A.U. after   15 cycles
 SCF Done:  E(RHF) =  -1613.81223075     A.U. after   15 cycles
 SCF Done:  E(RHF) =  -1613.81266118     A.U. after   15 cycles
 SCF Done:  E(RHF) =  -1613.81346980     A.U. after   14 cycles
 SCF Done:  E(RHF) =  -1613.81358250     A.U. after   14 cycles
 SCF Done:  E(RHF) =  -1613.81369884     A.U. after   14 cycles
 SCF Done:  E(RHF) =  -1613.81382939     A.U. after   13 cycles
 SCF Done:  E(RHF) =  -1613.81404367     A.U. after   14 cycles
 SCF Done:  E(RHF) =  -1613.81421549     A.U. after   12 cycles
 SCF Done:  E(RHF) =  -1613.81429932     A.U. after   13 cycles
 SCF Done:  E(RHF) =  -1613.81435926     A.U. after   12 cycles
 SCF Done:  E(RHF) =  -1613.81436488     A.U. after   11 cycles
 SCF Done:  E(RHF) =  -1613.81436510     A.U. after   10 cycles
 SCF Done:  E(RHF) =  -1613.81436514     A.U. after    8 cycles
 SCF Done:  E(RHF) =  -1613.81436516     A.U. after    8 cycles
 Optimization completed.
    -- Stationary point found.

                         Standard orientation:
 ---------------------------------------------------------------------
 Center     Atomic      Atomic             Coordinates (Angstroms)
 Number     Number       Type             X           Y           Z
 ---------------------------------------------------------------------
      1          6           0       -4.022920    0.291595    0.266965
      2          6           0       -2.679781    0.790597    0.434628
      3          6           0       -1.751345   -0.119090    0.040052
      4          6           0       -2.412037    2.153589    1.019713
      5          6           0       -4.077624   -0.956251   -0.239355
      6          1           0       -4.898972    0.862365    0.536183
      7         16           0       -2.501199   -1.582562   -0.553400
      8          1           0       -4.954031   -1.547302   -0.444535
      9          6           0       -0.282545   -0.021764    0.013561
     10         16           0        0.521929    1.357802   -0.725259
     11          6           0        2.080070    0.678107   -0.371720
     12          6           0        1.957068   -0.527558    0.254130
     13          6           0        0.602347   -0.934686    0.479439
     14          1           0        0.305638   -1.847426    0.969631
     15         16           0        3.514730   -1.208561    0.612237
     16          6           0        4.302848    0.173213   -0.103548
     17          6           0        3.437940    1.091907   -0.581834
     18          1           0        5.378437    0.218234   -0.127325
     19          1           0        3.739260    2.010159   -1.058930
     20          1           0       -3.074630    2.330134    1.867026
     21          1           0       -2.600167    2.937801    0.284445
     22          1           0       -1.387033    2.251227    1.364075
 ---------------------------------------------------------------------

 The electronic state is 1-A.
 Alpha  occ. eigenvalues --  -91.99049 -91.99041 -91.98423 -11.28971 -11.27788
 Alpha  occ. eigenvalues --  -11.27685 -11.27315 -11.27171 -11.27108 -11.25831
 Alpha  occ. eigenvalues --  -11.25700 -11.25532 -11.24351 -11.23611  -8.99224
 Alpha  occ. eigenvalues --   -8.99216  -8.98650  -6.67390  -6.67381  -6.67312
 Alpha  occ. eigenvalues --   -6.67300  -6.67106  -6.67092  -6.66816  -6.66723
 Alpha  occ. eigenvalues --   -6.66531  -1.21789  -1.18607  -1.12889  -1.03920
 Alpha  occ. eigenvalues --   -1.02663  -1.01696  -0.95649  -0.94741  -0.91930
 Alpha  occ. eigenvalues --   -0.82180  -0.77673  -0.76568  -0.72087  -0.70213
 Alpha  occ. eigenvalues --   -0.67423  -0.66905  -0.60575  -0.59150  -0.58894
 Alpha  occ. eigenvalues --   -0.56773  -0.56382  -0.54809  -0.53800  -0.52517
 Alpha  occ. eigenvalues --   -0.51665  -0.51257  -0.49602  -0.47288  -0.46448
 Alpha  occ. eigenvalues --   -0.46042  -0.38998  -0.34680  -0.34082  -0.32290
 Alpha  occ. eigenvalues --   -0.29031
 Alpha virt. eigenvalues --    0.03445   0.03484   0.04142   0.04780   0.04851
 Alpha virt. eigenvalues --    0.05891   0.05977   0.07338   0.07639   0.08605
 Alpha virt. eigenvalues --    0.09003   0.09386   0.10379   0.10593   0.11234

 Mulliken charges:
               1
     1  C    0.540866
     2  C   -0.950775
     3  C    0.910582
     4  C    0.533845
     5  C   -0.278574
     6  H   -0.487433
     7  S    0.379578
     8  H   -0.358621
     9  C    0.128198
    10  S    0.344731
    11  C   -0.697417
    12  C   -0.258597
    13  C    0.291517
    14  H   -0.497981
    15  S    0.594439
    16  C   -0.098476
    17  C    0.579095
    18  H   -0.383226
    19  H   -0.326531
    20  H   -0.051917
    21  H    0.124840
    22  H   -0.038144
 Sum of Mulliken charges =   0.00000

 Dipole moment (field-independent basis, Debye):
    X=             -0.4902    Y=              1.1411    Z=              0.5054  Tot=              1.3409
 Quadrupole moment (field-independent basis, Debye-Ang):
   XX=            -86.4269   YY=           -101.0035   ZZ=           -109.0754
   XY=              2.2363   XZ=             -3.2000   YZ=             -1.0120

 Normal termination of Gaussian 16 at Tue Oct 26 01:08:18 2021.
