 Gaussian 16, Revision C.01,
 Gaussian 16:  ES64L-G16RevC.01  3-Jul-2019

 ---------------------------------
 # opt=modredundant hf/aug-cc-pvdz
 ---------------------------------

 ------------
 pBTTT_80.pdb
 ------------
 Symbolic Z-matrix:
 Charge =  0 Multiplicity = 1

 SCF Done:  E(RHF) =  -1613.75086526     A.U. after   18 cycles
 SCF Done:  E(RHF) =  -1613.79404116     A.U. after   16 cycles
 SCF Done:  E(RHF) =  -1613.80923843     A.U. after   16 cycles
 SCF Done:  E(RHF) =  -1613.81224976     A.U. after   17 cycles
 SCF Done:  E(RHF) =  -1613.81262860     A.U. after   13 cycles
 SCF Done:  E(RHF) =  -1613.81341785     A.U. after   13 cycles
 SCF Done:  E(RHF) =  -1613.81344910     A.U. after   13 cycles
 SCF Done:  E(RHF) =  -1613.81347494     A.U. after   13 cycles
 SCF Done:  E(RHF) =  -1613.81349261     A.U. after   12 cycles
 SCF Done:  E(RHF) =  -1613.81349456     A.U. after   11 cycles
 SCF Done:  E(RHF) =  -1613.81442973     A.U. after   13 cycles
 SCF Done:  E(RHF) =  -1613.81334030     A.U. after   15 cycles
 SCF Done:  E(RHF) =  -1613.81310385     A.U. after   14 cycles
 SCF Done:  E(RHF) =  -1613.81191414     A.U. after   15 cycles
 SCF Done:  E(RHF) =  -1613.81445121     A.U. after    9 cycles
 SCF Done:  E(RHF) =  -1613.81475769     A.U. after   14 cycles
 SCF Done:  E(RHF) =  -1613.81478064     A.U. after   12 cycles
 SCF Done:  E(RHF) =  -1613.81479855     A.U. after   12 cycles
 SCF Done:  E(RHF) =  -1613.81480342     A.U. after   11 cycles
 SCF Done:  E(RHF) =  -1613.81480358     A.U. after    9 cycles
 Optimization completed.
    -- Stationary point found.

                         Standard orientation:
 ---------------------------------------------------------------------
 Center     Atomic      Atomic             Coordinates (Angstroms)
 Number     Number       Type             X           Y           Z
 ---------------------------------------------------------------------
      1          6           0        3.993754    0.365501    0.442319
      2          6           0        2.620445    0.779071    0.603520
      3          6           0        1.758302   -0.102774    0.040966
      4          6           0        2.238820    2.042590    1.327181
      5          6           0        4.128059   -0.796958   -0.226728
      6          1           0        4.829608    0.931429    0.825470
      7         16           0        2.598805   -1.445121   -0.696386
      8          1           0        5.040399   -1.314929   -0.470008
      9          6           0        0.284122   -0.038772   -0.010171
     10         16           0       -0.520526    0.976545   -1.200054
     11          6           0       -2.077379    0.479927   -0.612356
     12          6           0       -1.952439   -0.408371    0.415485
     13          6           0       -0.595074   -0.712159    0.764057
     14          1           0       -0.292108   -1.388527    1.546626
     15         16           0       -3.508543   -0.906490    1.006407
     16          6           0       -4.299457    0.113126   -0.166987
     17          6           0       -3.436950    0.787610   -0.955388
     18          1           0       -5.375161    0.148781   -0.200657
     19          1           0       -3.740406    1.464361   -1.737342
     20          1           0        2.640545    2.916113    0.811612
     21          1           0        2.647662    2.038680    2.338511
     22          1           0        1.160460    2.152408    1.394929
 ---------------------------------------------------------------------

 The electronic state is 1-A.
 Alpha  occ. eigenvalues --  -91.99057 -91.98957 -91.98348 -11.28772 -11.27814
 Alpha  occ. eigenvalues --  -11.27431 -11.27311 -11.27158 -11.27121 -11.25816
 Alpha  occ. eigenvalues --  -11.25812 -11.25499 -11.24284 -11.23565  -8.99239
 Alpha  occ. eigenvalues --   -8.99112  -8.98562  -6.67406  -6.67328  -6.67275
 Alpha  occ. eigenvalues --   -6.67193  -6.67122  -6.66987  -6.66726  -6.66634
 Alpha  occ. eigenvalues --   -6.66443  -1.21737  -1.18544  -1.12856  -1.03885
 Alpha  occ. eigenvalues --   -1.02532  -1.01571  -0.95765  -0.94662  -0.91800
 Alpha  occ. eigenvalues --   -0.82076  -0.77463  -0.76422  -0.72493  -0.70036
 Alpha  occ. eigenvalues --   -0.67342  -0.66870  -0.60656  -0.59083  -0.58821
 Alpha  occ. eigenvalues --   -0.56717  -0.56322  -0.54706  -0.53789  -0.52493
 Alpha  occ. eigenvalues --   -0.51672  -0.50996  -0.49497  -0.47381  -0.46271
 Alpha  occ. eigenvalues --   -0.46003  -0.38824  -0.34201  -0.33151  -0.32223
 Alpha  occ. eigenvalues --   -0.30455
 Alpha virt. eigenvalues --    0.03409   0.03481   0.04177   0.04641   0.04897
 Alpha virt. eigenvalues --    0.05744   0.06113   0.07353   0.08365   0.08690
 Alpha virt. eigenvalues --    0.08752   0.09030   0.10207   0.10373   0.11129

 Mulliken charges:
               1
     1  C    0.711212
     2  C   -1.171977
     3  C    0.903424
     4  C    0.469111
     5  C   -0.296191
     6  H   -0.483063
     7  S    0.303188
     8  H   -0.358816
     9  C    0.406763
    10  S    0.344089
    11  C   -0.756228
    12  C   -0.372074
    13  C    0.212112
    14  H   -0.485370
    15  S    0.632162
    16  C   -0.057607
    17  C    0.683418
    18  H   -0.381694
    19  H   -0.326134
    20  H    0.087752
    21  H    0.051678
    22  H   -0.115755
 Sum of Mulliken charges =   0.00000

 Dipole moment (field-independent basis, Debye):
    X=              0.3946    Y=              1.0669    Z=              0.6763  Tot=              1.3234
 Quadrupole moment (field-independent basis, Debye-Ang):
   XX=            -86.7714   YY=           -104.2851   ZZ=           -105.7236
   XY=             -1.2546   XZ=              5.0054   YZ=             -1.2227

 1\1\GINC-CX3-12-27\FOpt\RHF\Aug-CC-pVDZ\C11H8S3\NS5018\26-Oct-2021\0\\
 # opt=modredundant hf/aug-cc-pvdz\\pBTTT_80.pdb\\0,1\C,-4.2349870056,-
 1.3132038245,-0.3066281851\C,-2.8566851818,-1.0667587507,-0.656704875\
 C,-2.1086244272,-2.1950121005,-0.5870014649\C,-2.3576693959,0.29624290
 43,-1.055469226\C,-4.4848470903,-2.5986686127,0.0129374436\H,-4.990946
 7801,-0.5423233002,-0.3063148699\S,-3.0630921249,-3.5718089747,-0.0915
 725767\H,-5.4264072786,-3.0340626668,0.3023153916\C,-0.6675271421,-2.3
 585561283,-0.8634225136\S,0.5263239511,-1.9068034319,0.3468615579\C,1.

 Normal termination of Gaussian 16 at Tue Oct 26 02:51:59 2021.
