 Gaussian 16, Revision C.01,
 Gaussian 16:  ES64L-G16RevC.01  3-Jul-2019

 ---------------------------------
 # opt=modredundant hf/aug-cc-pvdz
 ---------------------------------

 -------------
 pBTTT_160.pdb
 -------------
 Symbolic Z-matrix:
 Charge =  0 Multiplicity = 1

 SCF Done:  E(RHF) =  -1613.75266974     A.U. after   18 cycles
 SCF Done:  E(RHF) =  -1613.79373829     A.U. after   16 cycles
 SCF Done:  E(RHF) =  -1613.80738711     A.U. after   16 cycles
 SCF Done:  E(RHF) =  -1613.81045472     A.U. after   15 cycles
 SCF Done:  E(RHF) =  -1613.81127829     A.U. after   15 cycles
 SCF Done:  E(RHF) =  -1613.81173676     A.U. after   15 cycles
 SCF Done:  E(RHF) =  -1613.81196946     A.U. after   13 cycles
 SCF Done:  E(RHF) =  -1613.81200311     A.U. after   13 cycles
 SCF Done:  E(RHF) =  -1613.81207864     A.U. after   13 cycles
 SCF Done:  E(RHF) =  -1613.81210853     A.U. after   12 cycles
 SCF Done:  E(RHF) =  -1613.81212209     A.U. after   11 cycles
 SCF Done:  E(RHF) =  -1613.81212643     A.U. after   11 cycles
 SCF Done:  E(RHF) =  -1613.81212711     A.U. after   11 cycles
 SCF Done:  E(RHF) =  -1613.81212741     A.U. after   10 cycles
 Optimization completed.
    -- Stationary point found.

                         Standard orientation:
 ---------------------------------------------------------------------
 Center     Atomic      Atomic             Coordinates (Angstroms)
 Number     Number       Type             X           Y           Z
 ---------------------------------------------------------------------
      1          6           0       -3.961484    0.768822   -0.003651
      2          6           0       -2.575540    1.120864    0.165563
      3          6           0       -1.755763    0.041123    0.026660
      4          6           0       -2.157095    2.530835    0.494825
      5          6           0       -4.161490   -0.537885   -0.266801
      6          1           0       -4.763193    1.486279    0.084383
      7         16           0       -2.673661   -1.403961   -0.334159
      8          1           0       -5.097378   -1.046866   -0.421702
      9          6           0       -0.288679   -0.017225    0.059012
     10         16           0        0.526354   -1.547832    0.380785
     11          6           0        2.080522   -0.806319    0.168519
     12          6           0        1.952874    0.518818   -0.123733
     13          6           0        0.598774    0.976417   -0.199765
     14          1           0        0.317164    1.978944   -0.466382
     15         16           0        3.507933    1.265290   -0.333886
     16          6           0        4.300645   -0.256018   -0.015049
     17          6           0        3.438496   -1.263719    0.234573
     18          1           0        5.375921   -0.309103   -0.033473
     19          1           0        3.742180   -2.274588    0.452371
     20          1           0       -2.981231    3.063180    0.966760
     21          1           0       -1.881105    3.085776   -0.404076
     22          1           0       -1.309930    2.546133    1.177364
 ---------------------------------------------------------------------

 The electronic state is 1-A.
 Alpha  occ. eigenvalues --  -91.99059 -91.98950 -91.98524 -11.29263 -11.27982
 Alpha  occ. eigenvalues --  -11.27765 -11.27311 -11.27166 -11.27154 -11.25830
 Alpha  occ. eigenvalues --  -11.25687 -11.25638 -11.24478 -11.24106  -8.99241
 Alpha  occ. eigenvalues --   -8.99144  -8.98776  -6.67408  -6.67330  -6.67311
 Alpha  occ. eigenvalues --   -6.67230  -6.67124  -6.67018  -6.66943  -6.66850
 Alpha  occ. eigenvalues --   -6.66658  -1.21826  -1.18747  -1.12892  -1.04319
 Alpha  occ. eigenvalues --   -1.02447  -1.01965  -0.95923  -0.94536  -0.92248
 Alpha  occ. eigenvalues --   -0.82345  -0.77387  -0.76965  -0.72726  -0.70212
 Alpha  occ. eigenvalues --   -0.67491  -0.66921  -0.60686  -0.59366  -0.59073
 Alpha  occ. eigenvalues --   -0.56717  -0.56359  -0.54854  -0.54225  -0.52480
 Alpha  occ. eigenvalues --   -0.52119  -0.51354  -0.49416  -0.47417  -0.46907
 Alpha  occ. eigenvalues --   -0.45798  -0.39256  -0.35507  -0.34336  -0.32279
 Alpha  occ. eigenvalues --   -0.28034
 Alpha virt. eigenvalues --    0.03353   0.03530   0.03993   0.04927   0.05013
 Alpha virt. eigenvalues --    0.05496   0.06621   0.06791   0.07972   0.08291
 Alpha virt. eigenvalues --    0.08859   0.09876   0.10196   0.10761   0.10884

 Mulliken charges:
               1
     1  C    0.494337
     2  C   -0.434186
     3  C    0.284878
     4  C    0.507138
     5  C   -0.279533
     6  H   -0.507742
     7  S    0.493061
     8  H   -0.374387
     9  C   -0.070276
    10  S    0.472209
    11  C   -0.622531
    12  C   -0.338345
    13  C    0.633049
    14  H   -0.583561
    15  S    0.545867
    16  C   -0.112105
    17  C    0.496816
    18  H   -0.386037
    19  H   -0.331131
    20  H   -0.232438
    21  H    0.197610
    22  H    0.147307
 Sum of Mulliken charges =  -0.00000

 Dipole moment (field-independent basis, Debye):
    X=             -0.4557    Y=              1.1370    Z=              0.1216  Tot=              1.2310
 Quadrupole moment (field-independent basis, Debye-Ang):
   XX=            -86.5779   YY=            -98.7741   ZZ=           -111.0917
   XY=             -7.0854   XZ=              0.8465   YZ=             -0.3599

 Normal termination of Gaussian 16 at Tue Oct 26 01:29:27 2021.
