 Gaussian 16, Revision C.01,
 Gaussian 16:  ES64L-G16RevC.01  3-Jul-2019

 ---------------------------------
 # opt=modredundant hf/aug-cc-pvdz
 ---------------------------------

 -------------
 pBTTT_165.pdb
 -------------
 Symbolic Z-matrix:
 Charge =  0 Multiplicity = 1

 SCF Done:  E(RHF) =  -1613.75267577     A.U. after   18 cycles
 SCF Done:  E(RHF) =  -1613.79354745     A.U. after   16 cycles
 SCF Done:  E(RHF) =  -1613.80703288     A.U. after   16 cycles
 SCF Done:  E(RHF) =  -1613.81000979     A.U. after   16 cycles
 SCF Done:  E(RHF) =  -1613.81086256     A.U. after   15 cycles
 SCF Done:  E(RHF) =  -1613.81114771     A.U. after   15 cycles
 SCF Done:  E(RHF) =  -1613.81141000     A.U. after   13 cycles
 SCF Done:  E(RHF) =  -1613.81144984     A.U. after   12 cycles
 SCF Done:  E(RHF) =  -1613.81147633     A.U. after   12 cycles
 SCF Done:  E(RHF) =  -1613.81149969     A.U. after   12 cycles
 SCF Done:  E(RHF) =  -1613.81150938     A.U. after   11 cycles
 SCF Done:  E(RHF) =  -1613.81151231     A.U. after   11 cycles
 SCF Done:  E(RHF) =  -1613.81151398     A.U. after   11 cycles
 SCF Done:  E(RHF) =  -1613.81151430     A.U. after   10 cycles
 Optimization completed.
    -- Stationary point found.

                         Standard orientation:
 ---------------------------------------------------------------------
 Center     Atomic      Atomic             Coordinates (Angstroms)
 Number     Number       Type             X           Y           Z
 ---------------------------------------------------------------------
      1          6           0       -3.962658    0.771540   -0.013035
      2          6           0       -2.575962    1.130473    0.129459
      3          6           0       -1.755738    0.045640    0.029389
      4          6           0       -2.157917    2.554435    0.392573
      5          6           0       -4.164993   -0.544930   -0.219914
      6          1           0       -4.763398    1.492562    0.050301
      7         16           0       -2.677827   -1.412410   -0.262234
      8          1           0       -5.101704   -1.059943   -0.347012
      9          6           0       -0.288311   -0.014749    0.056837
     10         16           0        0.523880   -1.561508    0.304198
     11          6           0        2.080269   -0.814980    0.132353
     12          6           0        1.956230    0.522841   -0.095193
     13          6           0        0.603845    0.987866   -0.150172
     14          1           0        0.329612    2.004424   -0.363151
     15         16           0        3.513561    1.275003   -0.264887
     16          6           0        4.301985   -0.262032   -0.019001
     17          6           0        3.436834   -1.278625    0.179072
     18          1           0        5.377170   -0.316799   -0.037542
     19          1           0        3.737560   -2.299671    0.347990
     20          1           0       -3.002841    3.126191    0.771937
     21          1           0       -1.813173    3.045390   -0.519534
     22          1           0       -1.358542    2.605610    1.129594
 ---------------------------------------------------------------------

 The electronic state is 1-A.
 Alpha  occ. eigenvalues --  -91.99054 -91.98938 -91.98541 -11.29327 -11.28039
 Alpha  occ. eigenvalues --  -11.27760 -11.27300 -11.27173 -11.27145 -11.25830
 Alpha  occ. eigenvalues --  -11.25664 -11.25663 -11.24492 -11.24169  -8.99235
 Alpha  occ. eigenvalues --   -8.99137  -8.98797  -6.67402  -6.67325  -6.67304
 Alpha  occ. eigenvalues --   -6.67222  -6.67118  -6.67010  -6.66966  -6.66873
 Alpha  occ. eigenvalues --   -6.66680  -1.21825  -1.18768  -1.12887  -1.04362
 Alpha  occ. eigenvalues --   -1.02447  -1.01990  -0.95928  -0.94523  -0.92302
 Alpha  occ. eigenvalues --   -0.82360  -0.77395  -0.77014  -0.72718  -0.70261
 Alpha  occ. eigenvalues --   -0.67505  -0.66926  -0.60667  -0.59427  -0.59094
 Alpha  occ. eigenvalues --   -0.56715  -0.56374  -0.54917  -0.54243  -0.52463
 Alpha  occ. eigenvalues --   -0.52152  -0.51399  -0.49399  -0.47435  -0.46969
 Alpha  occ. eigenvalues --   -0.45715  -0.39299  -0.35608  -0.34384  -0.32257
 Alpha  occ. eigenvalues --   -0.27904
 Alpha virt. eigenvalues --    0.03340   0.03531   0.03973   0.04927   0.05032
 Alpha virt. eigenvalues --    0.05536   0.06502   0.06762   0.08070   0.08230
 Alpha virt. eigenvalues --    0.09018   0.09808   0.10295   0.10802   0.10875

 Mulliken charges:
               1
     1  C    0.512764
     2  C   -0.361798
     3  C    0.171622
     4  C    0.518356
     5  C   -0.281212
     6  H   -0.517783
     7  S    0.501766
     8  H   -0.379833
     9  C   -0.158949
    10  S    0.492254
    11  C   -0.597952
    12  C   -0.307530
    13  C    0.740108
    14  H   -0.630927
    15  S    0.530491
    16  C   -0.127044
    17  C    0.476725
    18  H   -0.386732
    19  H   -0.332983
    20  H   -0.264306
    21  H    0.217269
    22  H    0.185692
 Sum of Mulliken charges =  -0.00000

 Dipole moment (field-independent basis, Debye):
    X=             -0.4739    Y=              1.1415    Z=              0.0765  Tot=              1.2384
 Quadrupole moment (field-independent basis, Debye-Ang):
   XX=            -86.5379   YY=            -98.4885   ZZ=           -111.3514
   XY=             -7.1322   XZ=              0.6826   YZ=             -0.2536

 Normal termination of Gaussian 16 at Tue Oct 26 01:33:48 2021.
