 Gaussian 16, Revision C.01,
 Gaussian 16:  ES64L-G16RevC.01  3-Jul-2019

 ---------------------------------
 # opt=modredundant hf/aug-cc-pvdz
 ---------------------------------

 -------------
 pBTTT_150.pdb
 -------------
 Symbolic Z-matrix:
 Charge =  0 Multiplicity = 1

 SCF Done:  E(RHF) =  -1613.75280890     A.U. after   18 cycles
 SCF Done:  E(RHF) =  -1613.79427433     A.U. after   16 cycles
 SCF Done:  E(RHF) =  -1613.80810110     A.U. after   16 cycles
 SCF Done:  E(RHF) =  -1613.81121947     A.U. after   15 cycles
 SCF Done:  E(RHF) =  -1613.81192358     A.U. after   14 cycles
 SCF Done:  E(RHF) =  -1613.81273175     A.U. after   14 cycles
 SCF Done:  E(RHF) =  -1613.81288112     A.U. after   14 cycles
 SCF Done:  E(RHF) =  -1613.81304189     A.U. after   13 cycles
 SCF Done:  E(RHF) =  -1613.81316885     A.U. after   12 cycles
 SCF Done:  E(RHF) =  -1613.81323220     A.U. after   13 cycles
 SCF Done:  E(RHF) =  -1613.81325316     A.U. after   11 cycles
 SCF Done:  E(RHF) =  -1613.81326030     A.U. after   11 cycles
 SCF Done:  E(RHF) =  -1613.81326103     A.U. after   10 cycles
 SCF Done:  E(RHF) =  -1613.81326115     A.U. after    9 cycles
 Optimization completed.
    -- Stationary point found.

                         Standard orientation:
 ---------------------------------------------------------------------
 Center     Atomic      Atomic             Coordinates (Angstroms)
 Number     Number       Type             X           Y           Z
 ---------------------------------------------------------------------
      1          6           0       -3.960187    0.761939    0.029276
      2          6           0       -2.573675    1.099425    0.229355
      3          6           0       -1.755835    0.034102    0.008599
      4          6           0       -2.151419    2.478102    0.667423
      5          6           0       -4.158450   -0.521323   -0.331849
      6          1           0       -4.762817    1.470105    0.169816
      7         16           0       -2.669988   -1.381763   -0.460367
      8          1           0       -5.094323   -1.016712   -0.526502
      9          6           0       -0.288953   -0.023150    0.045369
     10         16           0        0.529134   -1.514141    0.507417
     11          6           0        2.080682   -0.786380    0.232528
     12          6           0        1.948382    0.507229   -0.177448
     13          6           0        0.591614    0.948348   -0.298785
     14          1           0        0.298389    1.920595   -0.654747
     15         16           0        3.500659    1.238497   -0.451228
     16          6           0        4.299073   -0.244630    0.003831
     17          6           0        3.440800   -1.229807    0.340956
     18          1           0        5.374617   -0.294347   -0.007850
     19          1           0        3.748419   -2.215816    0.648677
     20          1           0       -2.926107    2.925616    1.288702
     21          1           0       -1.997932    3.137186   -0.189517
     22          1           0       -1.229304    2.448739    1.242753
 ---------------------------------------------------------------------

 The electronic state is 1-A.
 Alpha  occ. eigenvalues --  -91.99067 -91.98969 -91.98489 -11.29140 -11.27871
 Alpha  occ. eigenvalues --  -11.27772 -11.27323 -11.27166 -11.27159 -11.25828
 Alpha  occ. eigenvalues --  -11.25722 -11.25604 -11.24448 -11.23982  -8.99248
 Alpha  occ. eigenvalues --   -8.99153  -8.98732  -6.67415  -6.67337  -6.67319
 Alpha  occ. eigenvalues --   -6.67238  -6.67131  -6.67027  -6.66898  -6.66805
 Alpha  occ. eigenvalues --   -6.66613  -1.21818  -1.18705  -1.12896  -1.04235
 Alpha  occ. eigenvalues --   -1.02444  -1.01909  -0.95910  -0.94557  -0.92145
 Alpha  occ. eigenvalues --   -0.82309  -0.77371  -0.76864  -0.72742  -0.70125
 Alpha  occ. eigenvalues --   -0.67464  -0.66907  -0.60713  -0.59264  -0.59024
 Alpha  occ. eigenvalues --   -0.56713  -0.56343  -0.54751  -0.54174  -0.52509
 Alpha  occ. eigenvalues --   -0.52046  -0.51254  -0.49444  -0.47383  -0.46776
 Alpha  occ. eigenvalues --   -0.45943  -0.39162  -0.35265  -0.34253  -0.32300
 Alpha  occ. eigenvalues --   -0.28340
 Alpha virt. eigenvalues --    0.03372   0.03528   0.04024   0.04915   0.04966
 Alpha virt. eigenvalues --    0.05468   0.06771   0.06924   0.07771   0.08376
 Alpha virt. eigenvalues --    0.08748   0.09886   0.10021   0.10804   0.10952

 Mulliken charges:
               1
     1  C    0.500291
     2  C   -0.601396
     3  C    0.480131
     4  C    0.500446
     5  C   -0.276395
     6  H   -0.493274
     7  S    0.459138
     8  H   -0.365817
     9  C    0.076807
    10  S    0.444438
    11  C   -0.676317
    12  C   -0.353884
    13  C    0.462632
    14  H   -0.517355
    15  S    0.572290
    16  C   -0.089954
    17  C    0.534231
    18  H   -0.384609
    19  H   -0.328881
    20  H   -0.168017
    21  H    0.157226
    22  H    0.068271
 Sum of Mulliken charges =  -0.00000

 Dipole moment (field-independent basis, Debye):
    X=             -0.4264    Y=              1.1299    Z=              0.2294  Tot=              1.2292
 Quadrupole moment (field-independent basis, Debye-Ang):
   XX=            -86.6541   YY=            -99.4031   ZZ=           -110.5044
   XY=             -6.9480   XZ=              1.1091   YZ=             -0.5853

 Normal termination of Gaussian 16 at Tue Oct 26 01:13:03 2021.
