 Gaussian 16, Revision C.01,
 Gaussian 16:  ES64L-G16RevC.01  3-Jul-2019

 ---------------------------------
 # opt=modredundant hf/aug-cc-pvdz
 ---------------------------------

 ------------
 pBTTT_50.pdb
 ------------
 Symbolic Z-matrix:
 Charge =  0 Multiplicity = 1

 SCF Done:  E(RHF) =  -1613.75210937     A.U. after   17 cycles
 SCF Done:  E(RHF) =  -1613.79437501     A.U. after   15 cycles
 SCF Done:  E(RHF) =  -1613.80898287     A.U. after   15 cycles
 SCF Done:  E(RHF) =  -1613.81192891     A.U. after   17 cycles
 SCF Done:  E(RHF) =  -1613.81244399     A.U. after   15 cycles
 SCF Done:  E(RHF) =  -1613.81329464     A.U. after   13 cycles
 SCF Done:  E(RHF) =  -1613.81343044     A.U. after   13 cycles
 SCF Done:  E(RHF) =  -1613.81353473     A.U. after   14 cycles
 SCF Done:  E(RHF) =  -1613.81367982     A.U. after   13 cycles
 SCF Done:  E(RHF) =  -1613.81381113     A.U. after   14 cycles
 SCF Done:  E(RHF) =  -1613.81402468     A.U. after   12 cycles
 SCF Done:  E(RHF) =  -1613.81426988     A.U. after   13 cycles
 SCF Done:  E(RHF) =  -1613.81435326     A.U. after   13 cycles
 SCF Done:  E(RHF) =  -1613.81436354     A.U. after   11 cycles
 SCF Done:  E(RHF) =  -1613.81436373     A.U. after   11 cycles
 SCF Done:  E(RHF) =  -1613.81436457     A.U. after   10 cycles
 SCF Done:  E(RHF) =  -1613.81436461     A.U. after    9 cycles
 SCF Done:  E(RHF) =  -1613.81436463     A.U. after    8 cycles
 Optimization completed.
    -- Stationary point found.

                         Standard orientation:
 ---------------------------------------------------------------------
 Center     Atomic      Atomic             Coordinates (Angstroms)
 Number     Number       Type             X           Y           Z
 ---------------------------------------------------------------------
      1          6           0        4.022934    0.291573    0.266881
      2          6           0        2.679815    0.790618    0.434538
      3          6           0        1.751345   -0.119089    0.040076
      4          6           0        2.412090    2.153641    1.019558
      5          6           0        4.077598   -0.956299   -0.239381
      6          1           0        4.899015    0.862305    0.536086
      7         16           0        2.501163   -1.582614   -0.553301
      8          1           0        4.954008   -1.547364   -0.444511
      9          6           0        0.282545   -0.021760    0.013590
     10         16           0       -0.521925    1.357873   -0.725123
     11          6           0       -2.080067    0.678146   -0.371652
     12          6           0       -1.957074   -0.527577    0.254084
     13          6           0       -0.602352   -0.934710    0.479398
     14          1           0       -0.305645   -1.847492    0.969512
     15         16           0       -3.514734   -1.208615    0.612115
     16          6           0       -4.302849    0.173227   -0.103538
     17          6           0       -3.437940    1.091963   -0.581741
     18          1           0       -5.378437    0.218274   -0.127308
     19          1           0       -3.739264    2.010249   -1.058767
     20          1           0        3.074888    2.330336    1.866682
     21          1           0        1.387164    2.251185    1.364187
     22          1           0        2.599942    2.937810    0.284176
 ---------------------------------------------------------------------

 The electronic state is 1-A.
 Alpha  occ. eigenvalues --  -91.99049 -91.99041 -91.98423 -11.28971 -11.27788
 Alpha  occ. eigenvalues --  -11.27685 -11.27315 -11.27171 -11.27108 -11.25831
 Alpha  occ. eigenvalues --  -11.25700 -11.25532 -11.24351 -11.23611  -8.99224
 Alpha  occ. eigenvalues --   -8.99216  -8.98650  -6.67390  -6.67381  -6.67312
 Alpha  occ. eigenvalues --   -6.67300  -6.67106  -6.67092  -6.66816  -6.66723
 Alpha  occ. eigenvalues --   -6.66531  -1.21789  -1.18607  -1.12889  -1.03920
 Alpha  occ. eigenvalues --   -1.02663  -1.01696  -0.95649  -0.94741  -0.91930
 Alpha  occ. eigenvalues --   -0.82180  -0.77673  -0.76568  -0.72087  -0.70213
 Alpha  occ. eigenvalues --   -0.67422  -0.66905  -0.60576  -0.59150  -0.58894
 Alpha  occ. eigenvalues --   -0.56772  -0.56383  -0.54809  -0.53800  -0.52517
 Alpha  occ. eigenvalues --   -0.51666  -0.51258  -0.49602  -0.47288  -0.46448
 Alpha  occ. eigenvalues --   -0.46042  -0.38998  -0.34680  -0.34083  -0.32290
 Alpha  occ. eigenvalues --   -0.29031
 Alpha virt. eigenvalues --    0.03446   0.03484   0.04142   0.04780   0.04851
 Alpha virt. eigenvalues --    0.05891   0.05977   0.07337   0.07639   0.08605
 Alpha virt. eigenvalues --    0.09003   0.09386   0.10379   0.10593   0.11234

 Mulliken charges:
               1
     1  C    0.540787
     2  C   -0.950549
     3  C    0.910483
     4  C    0.533834
     5  C   -0.278599
     6  H   -0.487432
     7  S    0.379634
     8  H   -0.358624
     9  C    0.128103
    10  S    0.344792
    11  C   -0.697425
    12  C   -0.258557
    13  C    0.291488
    14  H   -0.497987
    15  S    0.594444
    16  C   -0.098478
    17  C    0.579059
    18  H   -0.383226
    19  H   -0.326533
    20  H   -0.052029
    21  H   -0.038021
    22  H    0.124837
 Sum of Mulliken charges =  -0.00000

 Dipole moment (field-independent basis, Debye):
    X=              0.4902    Y=              1.1411    Z=              0.5054  Tot=              1.3408
 Quadrupole moment (field-independent basis, Debye-Ang):
   XX=            -86.4267   YY=           -101.0028   ZZ=           -109.0761
   XY=             -2.2366   XZ=              3.1996   YZ=             -1.0120

 Normal termination of Gaussian 16 at Tue Oct 26 01:34:30 2021.
