 Gaussian 16, Revision C.01,
 Gaussian 16:  ES64L-G16RevC.01  3-Jul-2019

 ---------------------------------
 # opt=modredundant hf/aug-cc-pvdz
 ---------------------------------

 --------------
 pBTTT_-130.pdb
 --------------
 Symbolic Z-matrix:
 Charge =  0 Multiplicity = 1

 SCF Done:  E(RHF) =  -1613.75089426     A.U. after   17 cycles
 SCF Done:  E(RHF) =  -1613.79345306     A.U. after   15 cycles
 SCF Done:  E(RHF) =  -1613.80858676     A.U. after   15 cycles
 SCF Done:  E(RHF) =  -1613.81152830     A.U. after   16 cycles
 SCF Done:  E(RHF) =  -1613.81216816     A.U. after   14 cycles
 SCF Done:  E(RHF) =  -1613.81307973     A.U. after   14 cycles
 SCF Done:  E(RHF) =  -1613.81311078     A.U. after   14 cycles
 SCF Done:  E(RHF) =  -1613.81350199     A.U. after   13 cycles
 SCF Done:  E(RHF) =  -1613.81383029     A.U. after   14 cycles
 SCF Done:  E(RHF) =  -1613.81399119     A.U. after   14 cycles
 SCF Done:  E(RHF) =  -1613.81431266     A.U. after   13 cycles
 SCF Done:  E(RHF) =  -1613.81443633     A.U. after   14 cycles
 SCF Done:  E(RHF) =  -1613.81451681     A.U. after   13 cycles
 SCF Done:  E(RHF) =  -1613.81452471     A.U. after   11 cycles
 SCF Done:  E(RHF) =  -1613.81452510     A.U. after   10 cycles
 Optimization completed.
    -- Stationary point found.

                         Standard orientation:
 ---------------------------------------------------------------------
 Center     Atomic      Atomic             Coordinates (Angstroms)
 Number     Number       Type             X           Y           Z
 ---------------------------------------------------------------------
      1          6           0        3.960566    0.736240    0.108374
      2          6           0        2.570480    1.045828    0.339038
      3          6           0        1.756675    0.027137   -0.041716
      4          6           0        2.138631    2.349924    0.956704
      5          6           0        4.159498   -0.486555   -0.421721
      6          1           0        4.763163    1.416293    0.351383
      7         16           0        2.671022   -1.319902   -0.681113
      8          1           0        5.097342   -0.951294   -0.674657
      9          6           0        0.287961   -0.034928   -0.001801
     10         16           0       -0.528000   -1.414296    0.727175
     11          6           0       -2.079523   -0.731844    0.350232
     12          6           0       -1.946595    0.469907   -0.281013
     13          6           0       -0.587778    0.871427   -0.494291
     14          1           0       -0.283732    1.770201   -1.004577
     15         16           0       -3.498480    1.153265   -0.660219
     16          6           0       -4.298231   -0.221926    0.055873
     17          6           0       -3.441038   -1.139795    0.549077
     18          1           0       -5.374112   -0.264767    0.066579
     19          1           0       -3.749819   -2.055088    1.027025
     20          1           0        2.792273    2.603979    1.791200
     21          1           0        1.117981    2.298969    1.324910
     22          1           0        2.200374    3.164152    0.232123
 ---------------------------------------------------------------------

 The electronic state is 1-A.
 Alpha  occ. eigenvalues --  -91.99069 -91.98973 -91.98404 -11.28939 -11.27785
 Alpha  occ. eigenvalues --  -11.27676 -11.27315 -11.27169 -11.27159 -11.25819
 Alpha  occ. eigenvalues --  -11.25763 -11.25584 -11.24374 -11.23773  -8.99249
 Alpha  occ. eigenvalues --   -8.99139  -8.98635  -6.67416  -6.67338  -6.67303
 Alpha  occ. eigenvalues --   -6.67222  -6.67132  -6.67014  -6.66800  -6.66707
 Alpha  occ. eigenvalues --   -6.66516  -1.21780  -1.18624  -1.12881  -1.04081
 Alpha  occ. eigenvalues --   -1.02440  -1.01777  -0.95878  -0.94579  -0.91973
 Alpha  occ. eigenvalues --   -0.82217  -0.77348  -0.76657  -0.72760  -0.70006
 Alpha  occ. eigenvalues --   -0.67412  -0.66879  -0.60741  -0.59129  -0.58916
 Alpha  occ. eigenvalues --   -0.56698  -0.56336  -0.54659  -0.54002  -0.52546
 Alpha  occ. eigenvalues --   -0.51896  -0.51075  -0.49474  -0.47351  -0.46485
 Alpha  occ. eigenvalues --   -0.46113  -0.38976  -0.34648  -0.34108  -0.32255
 Alpha  occ. eigenvalues --   -0.29121
 Alpha virt. eigenvalues --    0.03390   0.03523   0.04070   0.04807   0.04939
 Alpha virt. eigenvalues --    0.05488   0.06655   0.07334   0.07797   0.08461
 Alpha virt. eigenvalues --    0.08772   0.09382   0.10214   0.10722   0.11159

 Mulliken charges:
               1
     1  C    0.602719
     2  C   -0.933754
     3  C    0.762873
     4  C    0.505861
     5  C   -0.287548
     6  H   -0.481110
     7  S    0.371666
     8  H   -0.359381
     9  C    0.275904
    10  S    0.397960
    11  C   -0.749739
    12  C   -0.332674
    13  C    0.280163
    14  H   -0.477240
    15  S    0.608900
    16  C   -0.063378
    17  C    0.588457
    18  H   -0.380529
    19  H   -0.328437
    20  H   -0.051532
    21  H   -0.061059
    22  H    0.111877
 Sum of Mulliken charges =  -0.00000

 Dipole moment (field-independent basis, Debye):
    X=              0.3899    Y=              1.1174    Z=              0.4547  Tot=              1.2678
 Quadrupole moment (field-independent basis, Debye-Ang):
   XX=            -86.7925   YY=           -100.9075   ZZ=           -109.0353
   XY=              6.5190   XZ=             -1.5565   YZ=             -0.9936

 Normal termination of Gaussian 16 at Mon Oct 25 23:29:15 2021.
