 Gaussian 16, Revision C.01,
 Gaussian 16:  ES64L-G16RevC.01  3-Jul-2019

 ---------------------------------
 # opt=modredundant hf/aug-cc-pvdz
 ---------------------------------

 ------------
 pBTTT_55.pdb
 ------------
 Symbolic Z-matrix:
 Charge =  0 Multiplicity = 1

 SCF Done:  E(RHF) =  -1613.75182877     A.U. after   17 cycles
 SCF Done:  E(RHF) =  -1613.79435039     A.U. after   15 cycles
 SCF Done:  E(RHF) =  -1613.80910583     A.U. after   16 cycles
 SCF Done:  E(RHF) =  -1613.81205377     A.U. after   17 cycles
 SCF Done:  E(RHF) =  -1613.81253859     A.U. after   15 cycles
 SCF Done:  E(RHF) =  -1613.81338005     A.U. after   13 cycles
 SCF Done:  E(RHF) =  -1613.81349083     A.U. after   13 cycles
 SCF Done:  E(RHF) =  -1613.81358042     A.U. after   14 cycles
 SCF Done:  E(RHF) =  -1613.81370683     A.U. after   13 cycles
 SCF Done:  E(RHF) =  -1613.81389767     A.U. after   14 cycles
 SCF Done:  E(RHF) =  -1613.81411426     A.U. after   13 cycles
 SCF Done:  E(RHF) =  -1613.81417832     A.U. after   14 cycles
 SCF Done:  E(RHF) =  -1613.81451669     A.U. after   14 cycles
 SCF Done:  E(RHF) =  -1613.81449632     A.U. after   14 cycles
 SCF Done:  E(RHF) =  -1613.81457489     A.U. after   13 cycles
 SCF Done:  E(RHF) =  -1613.81457207     A.U. after   12 cycles
 SCF Done:  E(RHF) =  -1613.81457594     A.U. after   11 cycles
 SCF Done:  E(RHF) =  -1613.81457608     A.U. after    9 cycles
 SCF Done:  E(RHF) =  -1613.81457608     A.U. after    8 cycles
 Optimization completed.
    -- Stationary point found.

                         Standard orientation:
 ---------------------------------------------------------------------
 Center     Atomic      Atomic             Coordinates (Angstroms)
 Number     Number       Type             X           Y           Z
 ---------------------------------------------------------------------
      1          6           0        4.018794    0.300247    0.298622
      2          6           0        2.670557    0.783426    0.472619
      3          6           0        1.752439   -0.117792    0.038618
      4          6           0        2.383805    2.122413    1.101270
      5          6           0        4.085633   -0.929027   -0.250114
      6          1           0        4.888939    0.867336    0.593633
      7         16           0        2.515992   -1.555896   -0.596679
      8          1           0        4.967858   -1.506297   -0.469302
      9          6           0        0.282617   -0.024877    0.010519
     10         16           0       -0.520608    1.317736   -0.794298
     11          6           0       -2.079093    0.657458   -0.406405
     12          6           0       -1.956554   -0.516862    0.276703
     13          6           0       -0.601555   -0.914184    0.519631
     14          1           0       -0.304032   -1.803250    1.051159
     15         16           0       -3.514371   -1.178759    0.668427
     16          6           0       -4.302090    0.167500   -0.112364
     17          6           0       -3.437028    1.061449   -0.635118
     18          1           0       -5.377674    0.212199   -0.137257
     19          1           0       -3.738163    1.955861   -1.155634
     20          1           0        2.995559    2.252938    1.994207
     21          1           0        1.340695    2.218759    1.386433
     22          1           0        2.625471    2.934649    0.413669
 ---------------------------------------------------------------------

 The electronic state is 1-A.
 Alpha  occ. eigenvalues --  -91.99043 -91.99033 -91.98413 -11.28927 -11.27793
 Alpha  occ. eigenvalues --  -11.27632 -11.27315 -11.27170 -11.27107 -11.25828
 Alpha  occ. eigenvalues --  -11.25726 -11.25518 -11.24338 -11.23592  -8.99226
 Alpha  occ. eigenvalues --   -8.99197  -8.98637  -6.67393  -6.67361  -6.67315
 Alpha  occ. eigenvalues --   -6.67280  -6.67108  -6.67072  -6.66802  -6.66709
 Alpha  occ. eigenvalues --   -6.66518  -1.21778  -1.18595  -1.12883  -1.03906
 Alpha  occ. eigenvalues --   -1.02637  -1.01673  -0.95670  -0.94729  -0.91898
 Alpha  occ. eigenvalues --   -0.82158  -0.77631  -0.76543  -0.72159  -0.70179
 Alpha  occ. eigenvalues --   -0.67401  -0.66897  -0.60588  -0.59143  -0.58874
 Alpha  occ. eigenvalues --   -0.56761  -0.56361  -0.54789  -0.53792  -0.52521
 Alpha  occ. eigenvalues --   -0.51661  -0.51196  -0.49581  -0.47310  -0.46406
 Alpha  occ. eigenvalues --   -0.46042  -0.38956  -0.34516  -0.34015  -0.32280
 Alpha  occ. eigenvalues --   -0.29266
 Alpha virt. eigenvalues --    0.03443   0.03484   0.04154   0.04749   0.04862
 Alpha virt. eigenvalues --    0.05910   0.05953   0.07396   0.07729   0.08620
 Alpha virt. eigenvalues --    0.08920   0.09317   0.10356   0.10599   0.11249

 Mulliken charges:
               1
     1  C    0.556053
     2  C   -0.981881
     3  C    0.898829
     4  C    0.519767
     5  C   -0.269327
     6  H   -0.484823
     7  S    0.365154
     8  H   -0.358097
     9  C    0.179770
    10  S    0.336422
    11  C   -0.710862
    12  C   -0.264642
    13  C    0.275011
    14  H   -0.493565
    15  S    0.603396
    16  C   -0.092696
    17  C    0.597409
    18  H   -0.382718
    19  H   -0.325964
    20  H   -0.025353
    21  H   -0.064280
    22  H    0.122396
 Sum of Mulliken charges =  -0.00000

 Dipole moment (field-independent basis, Debye):
    X=              0.4736    Y=              1.1206    Z=              0.5490  Tot=              1.3347
 Quadrupole moment (field-independent basis, Debye-Ang):
   XX=            -86.4930   YY=           -101.4551   ZZ=           -108.6076
   XY=             -2.1669   XZ=              3.4933   YZ=             -1.0838

 Normal termination of Gaussian 16 at Tue Oct 26 01:41:25 2021.
