 Gaussian 16, Revision C.01,
 Gaussian 16:  ES64L-G16RevC.01  3-Jul-2019

 ---------------------------------
 # opt=modredundant hf/aug-cc-pvdz
 ---------------------------------

 -------------
 pBTTT_-40.pdb
 -------------
 Symbolic Z-matrix:
 Charge =  0 Multiplicity = 1

 SCF Done:  E(RHF) =  -1613.75348097     A.U. after   18 cycles
 SCF Done:  E(RHF) =  -1613.79521576     A.U. after   16 cycles
 SCF Done:  E(RHF) =  -1613.80920254     A.U. after   16 cycles
 SCF Done:  E(RHF) =  -1613.81196022     A.U. after   15 cycles
 SCF Done:  E(RHF) =  -1613.81239436     A.U. after   15 cycles
 SCF Done:  E(RHF) =  -1613.81318416     A.U. after   14 cycles
 SCF Done:  E(RHF) =  -1613.81331181     A.U. after   14 cycles
 SCF Done:  E(RHF) =  -1613.81340142     A.U. after   14 cycles
 SCF Done:  E(RHF) =  -1613.81350279     A.U. after   13 cycles
 SCF Done:  E(RHF) =  -1613.81364673     A.U. after   14 cycles
 SCF Done:  E(RHF) =  -1613.81373131     A.U. after   13 cycles
 SCF Done:  E(RHF) =  -1613.81377437     A.U. after   12 cycles
 SCF Done:  E(RHF) =  -1613.81377961     A.U. after   11 cycles
 SCF Done:  E(RHF) =  -1613.81378032     A.U. after   10 cycles
 SCF Done:  E(RHF) =  -1613.81378041     A.U. after    9 cycles
 SCF Done:  E(RHF) =  -1613.81378046     A.U. after    9 cycles
 Optimization completed.
    -- Stationary point found.

                         Standard orientation:
 ---------------------------------------------------------------------
 Center     Atomic      Atomic             Coordinates (Angstroms)
 Number     Number       Type             X           Y           Z
 ---------------------------------------------------------------------
      1          6           0       -4.029993    0.275681    0.207676
      2          6           0       -2.696001    0.803661    0.355931
      3          6           0       -1.749694   -0.120642    0.041230
      4          6           0       -2.460742    2.212025    0.841616
      5          6           0       -4.064043   -1.005277   -0.209362
      6          1           0       -4.915869    0.853074    0.425349
      7         16           0       -2.476522   -1.630561   -0.460075
      8          1           0       -4.930190   -1.621152   -0.382150
      9          6           0       -0.282741   -0.015602    0.017875
     10         16           0        0.525643    1.426831   -0.585827
     11          6           0        2.082440    0.713102   -0.302584
     12          6           0        1.957669   -0.545187    0.208269
     13          6           0        0.603270   -0.968392    0.397437
     14          1           0        0.308225   -1.921889    0.803702
     15         16           0        3.514500   -1.259435    0.498789
     16          6           0        4.304408    0.181705   -0.086462
     17          6           0        3.440476    1.142575   -0.475455
     18          1           0        5.380031    0.226688   -0.107905
     19          1           0        3.742808    2.100840   -0.865244
     20          1           0       -3.226491    2.484969    1.566960
     21          1           0       -2.516246    2.926492    0.018536
     22          1           0       -1.490509    2.319715    1.317533
 ---------------------------------------------------------------------

 The electronic state is 1-A.
 Alpha  occ. eigenvalues --  -91.99075 -91.99035 -91.98441 -11.29066 -11.27792
 Alpha  occ. eigenvalues --  -11.27777 -11.27313 -11.27170 -11.27118 -11.25837
 Alpha  occ. eigenvalues --  -11.25646 -11.25568 -11.24380 -11.23664  -8.99251
 Alpha  occ. eigenvalues --   -8.99217  -8.98677  -6.67416  -6.67384  -6.67336
 Alpha  occ. eigenvalues --   -6.67306  -6.67127  -6.67099  -6.66843  -6.66750
 Alpha  occ. eigenvalues --   -6.66558  -1.21810  -1.18635  -1.12899  -1.03964
 Alpha  occ. eigenvalues --   -1.02717  -1.01734  -0.95610  -0.94761  -0.92004
 Alpha  occ. eigenvalues --   -0.82228  -0.77765  -0.76613  -0.71945  -0.70286
 Alpha  occ. eigenvalues --   -0.67475  -0.66926  -0.60549  -0.59169  -0.58941
 Alpha  occ. eigenvalues --   -0.56792  -0.56437  -0.54851  -0.53828  -0.52493
 Alpha  occ. eigenvalues --   -0.51678  -0.51405  -0.49636  -0.47241  -0.46546
 Alpha  occ. eigenvalues --   -0.46022  -0.39097  -0.35015  -0.34175  -0.32306
 Alpha  occ. eigenvalues --   -0.28593
 Alpha virt. eigenvalues --    0.03448   0.03481   0.04113   0.04826   0.04848
 Alpha virt. eigenvalues --    0.05856   0.06036   0.07074   0.07591   0.08577
 Alpha virt. eigenvalues --    0.09199   0.09539   0.10406   0.10539   0.11139

 Mulliken charges:
               1
     1  C    0.524215
     2  C   -0.863095
     3  C    0.891254
     4  C    0.554966
     5  C   -0.304685
     6  H   -0.494785
     7  S    0.409653
     8  H   -0.361486
     9  C    0.036459
    10  S    0.388022
    11  C   -0.689169
    12  C   -0.250803
    13  C    0.329995
    14  H   -0.511008
    15  S    0.575116
    16  C   -0.111767
    17  C    0.543710
    18  H   -0.384406
    19  H   -0.327671
    20  H   -0.112745
    21  H    0.129859
    22  H    0.028371
 Sum of Mulliken charges =  -0.00000

 Dipole moment (field-independent basis, Debye):
    X=             -0.5252    Y=              1.1794    Z=              0.4146  Tot=              1.3560
 Quadrupole moment (field-independent basis, Debye-Ang):
   XX=            -86.2929   YY=           -100.1897   ZZ=           -109.9268
   XY=              2.3325   XZ=             -2.6116   YZ=             -0.8419

 Normal termination of Gaussian 16 at Tue Oct 26 00:50:53 2021.
