 Gaussian 16, Revision C.01,
 Gaussian 16:  ES64L-G16RevC.01  3-Jul-2019

 ---------------------------------
 # opt=modredundant hf/aug-cc-pvdz
 ---------------------------------

 -------------
 pBTTT_105.pdb
 -------------
 Symbolic Z-matrix:
 Charge =  0 Multiplicity = 1

 SCF Done:  E(RHF) =  -1613.75115908     A.U. after   18 cycles
 SCF Done:  E(RHF) =  -1613.79420617     A.U. after   16 cycles
 SCF Done:  E(RHF) =  -1613.80919781     A.U. after   15 cycles
 SCF Done:  E(RHF) =  -1613.81215144     A.U. after   16 cycles
 SCF Done:  E(RHF) =  -1613.81251744     A.U. after   14 cycles
 SCF Done:  E(RHF) =  -1613.81327974     A.U. after   14 cycles
 SCF Done:  E(RHF) =  -1613.81332034     A.U. after   13 cycles
 SCF Done:  E(RHF) =  -1613.81338901     A.U. after   13 cycles
 SCF Done:  E(RHF) =  -1613.81344103     A.U. after   12 cycles
 SCF Done:  E(RHF) =  -1613.81370540     A.U. after   14 cycles
 SCF Done:  E(RHF) =  -1613.81330976     A.U. after   15 cycles
 SCF Done:  E(RHF) =  -1613.81414110     A.U. after   13 cycles
 SCF Done:  E(RHF) =  -1613.81441537     A.U. after   13 cycles
 SCF Done:  E(RHF) =  -1613.81466259     A.U. after   14 cycles
 SCF Done:  E(RHF) =  -1613.81465717     A.U. after   12 cycles
 SCF Done:  E(RHF) =  -1613.81467791     A.U. after   11 cycles
 SCF Done:  E(RHF) =  -1613.81467973     A.U. after   10 cycles
 SCF Done:  E(RHF) =  -1613.81467976     A.U. after    8 cycles
 Optimization completed.
    -- Stationary point found.

                         Standard orientation:
 ---------------------------------------------------------------------
 Center     Atomic      Atomic             Coordinates (Angstroms)
 Number     Number       Type             X           Y           Z
 ---------------------------------------------------------------------
      1          6           0       -3.969842    0.671704    0.161346
      2          6           0       -2.581159    0.961670    0.428626
      3          6           0       -1.759150    0.015458   -0.088456
      4          6           0       -2.150464    2.176484    1.206193
      5          6           0       -4.155296   -0.470437   -0.529362
      6          1           0       -4.779095    1.306403    0.489936
      7         16           0       -2.658257   -1.247156   -0.896947
      8          1           0       -5.088631   -0.903943   -0.846800
      9          6           0       -0.285971   -0.041405   -0.032243
     10         16           0        0.524349   -1.163992    1.053365
     11          6           0        2.078100   -0.601834    0.519343
     12          6           0        1.948756    0.377772   -0.421205
     13          6           0        0.589885    0.700410   -0.745471
     14          1           0        0.283328    1.435446   -1.471597
     15         16           0        3.502496    0.940934   -0.957715
     16          6           0        4.298390   -0.177646    0.118318
     17          6           0        3.439135   -0.929645    0.836991
     18          1           0        5.374251   -0.208760    0.151321
     19          1           0        3.745743   -1.675224    1.552269
     20          1           0       -2.663832    2.211643    2.167860
     21          1           0       -2.403467    3.089238    0.664231
     22          1           0       -1.080017    2.173417    1.389036
 ---------------------------------------------------------------------

 The electronic state is 1-A.
 Alpha  occ. eigenvalues --  -91.99066 -91.98946 -91.98323 -11.28781 -11.27810
 Alpha  occ. eigenvalues --  -11.27471 -11.27308 -11.27157 -11.27148 -11.25813
 Alpha  occ. eigenvalues --  -11.25804 -11.25548 -11.24290 -11.23616  -8.99246
 Alpha  occ. eigenvalues --   -8.99100  -8.98543  -6.67413  -6.67335  -6.67264
 Alpha  occ. eigenvalues --   -6.67182  -6.67129  -6.66975  -6.66707  -6.66615
 Alpha  occ. eigenvalues --   -6.66424  -1.21739  -1.18547  -1.12857  -1.03942
 Alpha  occ. eigenvalues --   -1.02468  -1.01610  -0.95828  -0.94609  -0.91830
 Alpha  occ. eigenvalues --   -0.82101  -0.77370  -0.76447  -0.72702  -0.69970
 Alpha  occ. eigenvalues --   -0.67353  -0.66865  -0.60724  -0.59052  -0.58829
 Alpha  occ. eigenvalues --   -0.56697  -0.56335  -0.54660  -0.53830  -0.52519
 Alpha  occ. eigenvalues --   -0.51743  -0.50961  -0.49478  -0.47371  -0.46242
 Alpha  occ. eigenvalues --   -0.46095  -0.38829  -0.34216  -0.33375  -0.32155
 Alpha  occ. eigenvalues --   -0.30303
 Alpha virt. eigenvalues --    0.03394   0.03501   0.04132   0.04689   0.04921
 Alpha virt. eigenvalues --    0.05576   0.06382   0.07341   0.08445   0.08522
 Alpha virt. eigenvalues --    0.08818   0.09013   0.10233   0.10445   0.10799

 Mulliken charges:
               1
     1  C    0.744312
     2  C   -1.232190
     3  C    0.936652
     4  C    0.490346
     5  C   -0.319134
     6  H   -0.483055
     7  S    0.320162
     8  H   -0.359209
     9  C    0.427141
    10  S    0.377023
    11  C   -0.774868
    12  C   -0.381744
    13  C    0.181350
    14  H   -0.478078
    15  S    0.630994
    16  C   -0.047759
    17  C    0.670524
    18  H   -0.379880
    19  H   -0.329272
    20  H    0.034409
    21  H    0.087759
    22  H   -0.115484
 Sum of Mulliken charges =  -0.00000

 Dipole moment (field-independent basis, Debye):
    X=             -0.3638    Y=              1.0953    Z=              0.6381  Tot=              1.3188
 Quadrupole moment (field-independent basis, Debye-Ang):
   XX=            -86.8852   YY=           -103.4716   ZZ=           -106.5023
   XY=             -5.6044   XZ=              2.3187   YZ=             -1.2723

 Normal termination of Gaussian 16 at Tue Oct 26 01:22:30 2021.
