 Gaussian 16, Revision C.01,
 Gaussian 16:  ES64L-G16RevC.01  3-Jul-2019

 ---------------------------------
 # opt=modredundant hf/aug-cc-pvdz
 ---------------------------------

 -------------
 pBTTT_-15.pdb
 -------------
 Symbolic Z-matrix:
 Charge =  0 Multiplicity = 1

 SCF Done:  E(RHF) =  -1613.75368874     A.U. after   18 cycles
 SCF Done:  E(RHF) =  -1613.79475312     A.U. after   16 cycles
 SCF Done:  E(RHF) =  -1613.80820261     A.U. after   16 cycles
 SCF Done:  E(RHF) =  -1613.81092793     A.U. after   16 cycles
 SCF Done:  E(RHF) =  -1613.81149027     A.U. after   15 cycles
 SCF Done:  E(RHF) =  -1613.81196784     A.U. after   15 cycles
 SCF Done:  E(RHF) =  -1613.81210735     A.U. after   14 cycles
 SCF Done:  E(RHF) =  -1613.81211374     A.U. after   13 cycles
 SCF Done:  E(RHF) =  -1613.81213296     A.U. after   13 cycles
 SCF Done:  E(RHF) =  -1613.81214518     A.U. after   11 cycles
 SCF Done:  E(RHF) =  -1613.81215073     A.U. after   11 cycles
 SCF Done:  E(RHF) =  -1613.81215332     A.U. after   11 cycles
 SCF Done:  E(RHF) =  -1613.81215418     A.U. after   11 cycles
 SCF Done:  E(RHF) =  -1613.81215438     A.U. after    9 cycles
 Optimization completed.
    -- Stationary point found.

                         Standard orientation:
 ---------------------------------------------------------------------
 Center     Atomic      Atomic             Coordinates (Angstroms)
 Number     Number       Type             X           Y           Z
 ---------------------------------------------------------------------
      1          6           0       -4.040884    0.257104    0.076934
      2          6           0       -2.718714    0.828613    0.139473
      3          6           0       -1.748681   -0.121350    0.022686
      4          6           0       -2.524589    2.313972    0.327138
      5          6           0       -4.050199   -1.079344   -0.088566
      6          1           0       -4.937897    0.851265    0.161351
      7         16           0       -2.450115   -1.712220   -0.186516
      8          1           0       -4.902681   -1.733055   -0.158466
      9          6           0       -0.284166   -0.005905    0.013708
     10         16           0        0.538141    1.536866   -0.220209
     11          6           0        2.089599    0.768178   -0.119131
     12          6           0        1.958153   -0.573445    0.081785
     13          6           0        0.603396   -1.022394    0.162326
     14          1           0        0.313876   -2.046623    0.328709
     15         16           0        3.511258   -1.343929    0.193579
     16          6           0        4.308691    0.190988   -0.037410
     17          6           0        3.449204    1.220333   -0.188379
     18          1           0        5.384486    0.234619   -0.048354
     19          1           0        3.756052    2.242057   -0.341863
     20          1           0       -3.469602    2.775673    0.606416
     21          1           0       -2.182136    2.792004   -0.591137
     22          1           0       -1.801511    2.532084    1.110307
 ---------------------------------------------------------------------

 The electronic state is 1-A.
 Alpha  occ. eigenvalues --  -91.99117 -91.99010 -91.98473 -11.29307 -11.28042
 Alpha  occ. eigenvalues --  -11.27730 -11.27292 -11.27196 -11.27115 -11.25832
 Alpha  occ. eigenvalues --  -11.25707 -11.25518 -11.24462 -11.23839  -8.99303
 Alpha  occ. eigenvalues --   -8.99192  -8.98733  -6.67469  -6.67390  -6.67358
 Alpha  occ. eigenvalues --   -6.67281  -6.67179  -6.67074  -6.66904  -6.66811
 Alpha  occ. eigenvalues --   -6.66617  -1.21837  -1.18717  -1.12899  -1.04139
 Alpha  occ. eigenvalues --   -1.02821  -1.01787  -0.95555  -0.94766  -0.92214
 Alpha  occ. eigenvalues --   -0.82334  -0.77988  -0.76683  -0.71648  -0.70467
 Alpha  occ. eigenvalues --   -0.67643  -0.66977  -0.60489  -0.59283  -0.59071
 Alpha  occ. eigenvalues --   -0.56794  -0.56584  -0.54983  -0.53935  -0.52318
 Alpha  occ. eigenvalues --   -0.51888  -0.51688  -0.49657  -0.47155  -0.46800
 Alpha  occ. eigenvalues --   -0.45839  -0.39365  -0.35613  -0.34373  -0.32337
 Alpha  occ. eigenvalues --   -0.27789
 Alpha virt. eigenvalues --    0.03421   0.03464   0.04020   0.04768   0.05011
 Alpha virt. eigenvalues --    0.05885   0.06098   0.06536   0.07468   0.08483
 Alpha virt. eigenvalues --    0.09624   0.10028   0.10332   0.10541   0.10991

 Mulliken charges:
               1
     1  C    0.514207
     2  C   -0.636754
     3  C    0.580180
     4  C    0.599562
     5  C   -0.342527
     6  H   -0.527927
     7  S    0.527471
     8  H   -0.383109
     9  C   -0.053247
    10  S    0.537806
    11  C   -0.808796
    12  C   -0.168973
    13  C    0.442978
    14  H   -0.542570
    15  S    0.516197
    16  C   -0.153669
    17  C    0.499140
    18  H   -0.389819
    19  H   -0.330053
    20  H   -0.229175
    21  H    0.177234
    22  H    0.171844
 Sum of Mulliken charges =  -0.00000

 Dipole moment (field-independent basis, Debye):
    X=             -0.6348    Y=              1.2489    Z=              0.1667  Tot=              1.4109
 Quadrupole moment (field-independent basis, Debye-Ang):
   XX=            -85.9353   YY=            -98.7563   ZZ=           -111.4829
   XY=              2.3762   XZ=             -1.0387   YZ=             -0.3241

 Normal termination of Gaussian 16 at Tue Oct 26 01:19:18 2021.
