 Gaussian 16, Revision C.01,
 Gaussian 16:  ES64L-G16RevC.01  3-Jul-2019

 ---------------------------------
 # opt=modredundant hf/aug-cc-pvdz
 ---------------------------------

 ------------
 pBTTT_-5.pdb
 ------------
 Symbolic Z-matrix:
 Charge =  0 Multiplicity = 1

 SCF Done:  E(RHF) =  -1613.75355022     A.U. after   18 cycles
 SCF Done:  E(RHF) =  -1613.79448617     A.U. after   16 cycles
 SCF Done:  E(RHF) =  -1613.80786796     A.U. after   16 cycles
 SCF Done:  E(RHF) =  -1613.81061604     A.U. after   16 cycles
 SCF Done:  E(RHF) =  -1613.81131395     A.U. after   15 cycles
 SCF Done:  E(RHF) =  -1613.81163722     A.U. after   15 cycles
 SCF Done:  E(RHF) =  -1613.81183076     A.U. after   14 cycles
 SCF Done:  E(RHF) =  -1613.81182286     A.U. after   12 cycles
 SCF Done:  E(RHF) =  -1613.81184265     A.U. after   11 cycles
 SCF Done:  E(RHF) =  -1613.81184361     A.U. after   10 cycles
 SCF Done:  E(RHF) =  -1613.81184404     A.U. after   10 cycles
 SCF Done:  E(RHF) =  -1613.81184435     A.U. after    9 cycles
 SCF Done:  E(RHF) =  -1613.81184448     A.U. after    9 cycles
 SCF Done:  E(RHF) =  -1613.81184454     A.U. after    9 cycles
 Optimization completed.
    -- Stationary point found.

                         Standard orientation:
 ---------------------------------------------------------------------
 Center     Atomic      Atomic             Coordinates (Angstroms)
 Number     Number       Type             X           Y           Z
 ---------------------------------------------------------------------
      1          6           0       -4.042378    0.257510    0.025574
      2          6           0       -2.720779    0.833449    0.046420
      3          6           0       -1.748755   -0.121621    0.007584
      4          6           0       -2.530296    2.329859    0.107914
      5          6           0       -4.050526   -1.087708   -0.029516
      6          1           0       -4.939804    0.856210    0.053644
      7         16           0       -2.449728   -1.725416   -0.062426
      8          1           0       -4.901997   -1.745973   -0.052748
      9          6           0       -0.284428   -0.005371    0.005229
     10         16           0        0.540980    1.552704   -0.072156
     11          6           0        2.091242    0.776536   -0.039689
     12          6           0        1.958443   -0.578082    0.027275
     13          6           0        0.603520   -1.031620    0.054465
     14          1           0        0.315646   -2.068128    0.110191
     15         16           0        3.510726   -1.357406    0.064120
     16          6           0        4.309787    0.192212   -0.012889
     17          6           0        3.451218    1.232138   -0.062943
     18          1           0        5.385619    0.235814   -0.016837
     19          1           0        3.758999    2.263788   -0.114012
     20          1           0       -3.497479    2.819886    0.198177
     21          1           0       -2.048516    2.711197   -0.792058
     22          1           0       -1.926388    2.625266    0.964499
 ---------------------------------------------------------------------

 The electronic state is 1-A.
 Alpha  occ. eigenvalues --  -91.99126 -91.99004 -91.98476 -11.29359 -11.28100
 Alpha  occ. eigenvalues --  -11.27717 -11.27289 -11.27225 -11.27090 -11.25828
 Alpha  occ. eigenvalues --  -11.25748 -11.25494 -11.24481 -11.23876  -8.99311
 Alpha  occ. eigenvalues --   -8.99185  -8.98741  -6.67477  -6.67398  -6.67351
 Alpha  occ. eigenvalues --   -6.67274  -6.67187  -6.67067  -6.66914  -6.66820
 Alpha  occ. eigenvalues --   -6.66626  -1.21837  -1.18734  -1.12895  -1.04185
 Alpha  occ. eigenvalues --   -1.02839  -1.01793  -0.95550  -0.94760  -0.92262
 Alpha  occ. eigenvalues --   -0.82355  -0.78034  -0.76694  -0.71593  -0.70507
 Alpha  occ. eigenvalues --   -0.67685  -0.66988  -0.60480  -0.59327  -0.59100
 Alpha  occ. eigenvalues --   -0.56786  -0.56610  -0.55020  -0.53963  -0.52203
 Alpha  occ. eigenvalues --   -0.52053  -0.51700  -0.49649  -0.47155  -0.46838
 Alpha  occ. eigenvalues --   -0.45776  -0.39426  -0.35709  -0.34415  -0.32346
 Alpha  occ. eigenvalues --   -0.27655
 Alpha virt. eigenvalues --    0.03404   0.03457   0.03991   0.04756   0.05027
 Alpha virt. eigenvalues --    0.05942   0.06084   0.06486   0.07422   0.08450
 Alpha virt. eigenvalues --    0.09656   0.10023   0.10334   0.10723   0.11049

 Mulliken charges:
               1
     1  C    0.524946
     2  C   -0.659038
     3  C    0.477717
     4  C    0.642917
     5  C   -0.326702
     6  H   -0.539364
     7  S    0.612108
     8  H   -0.392255
     9  C   -0.096594
    10  S    0.539488
    11  C   -0.829409
    12  C   -0.131849
    13  C    0.476571
    14  H   -0.546987
    15  S    0.495249
    16  C   -0.169108
    17  C    0.512287
    18  H   -0.394110
    19  H   -0.331388
    20  H   -0.239246
    21  H    0.187826
    22  H    0.186942
 Sum of Mulliken charges =  -0.00000

 Dipole moment (field-independent basis, Debye):
    X=             -0.6648    Y=              1.2626    Z=              0.0556  Tot=              1.4281
 Quadrupole moment (field-independent basis, Debye-Ang):
   XX=            -85.8452   YY=            -98.5133   ZZ=           -111.7556
   XY=              2.3615   XZ=             -0.3484   YZ=             -0.1077

 Normal termination of Gaussian 16 at Tue Oct 26 00:52:46 2021.
