 Gaussian 16, Revision C.01,
 Gaussian 16:  ES64L-G16RevC.01  3-Jul-2019

 ---------------------------------
 # opt=modredundant hf/aug-cc-pvdz
 ---------------------------------

 --------------
 pBTTT_-170.pdb
 --------------
 Symbolic Z-matrix:
 Charge =  0 Multiplicity = 1

 SCF Done:  E(RHF) =  -1613.75209784     A.U. after   18 cycles
 SCF Done:  E(RHF) =  -1613.79287433     A.U. after   16 cycles
 SCF Done:  E(RHF) =  -1613.80632997     A.U. after   15 cycles
 SCF Done:  E(RHF) =  -1613.80935237     A.U. after   17 cycles
 SCF Done:  E(RHF) =  -1613.81029454     A.U. after   14 cycles
 SCF Done:  E(RHF) =  -1613.81059150     A.U. after   14 cycles
 SCF Done:  E(RHF) =  -1613.81085902     A.U. after   14 cycles
 SCF Done:  E(RHF) =  -1613.81087667     A.U. after   13 cycles
 SCF Done:  E(RHF) =  -1613.81091783     A.U. after   13 cycles
 SCF Done:  E(RHF) =  -1613.81094635     A.U. after   11 cycles
 SCF Done:  E(RHF) =  -1613.81095829     A.U. after   11 cycles
 SCF Done:  E(RHF) =  -1613.81096085     A.U. after   11 cycles
 SCF Done:  E(RHF) =  -1613.81096172     A.U. after   11 cycles
 SCF Done:  E(RHF) =  -1613.81096211     A.U. after   10 cycles
 Optimization completed.
    -- Stationary point found.

                         Standard orientation:
 ---------------------------------------------------------------------
 Center     Atomic      Atomic             Coordinates (Angstroms)
 Number     Number       Type             X           Y           Z
 ---------------------------------------------------------------------
      1          6           0        3.964200    0.773662   -0.015142
      2          6           0        2.576195    1.138713    0.089923
      3          6           0        1.755692    0.050301    0.025762
      4          6           0        2.157583    2.574638    0.275819
      5          6           0        4.169401   -0.550749   -0.159275
      6          1           0        4.763894    1.497359    0.025330
      7         16           0        2.682871   -1.418749   -0.182540
      8          1           0        5.107325   -1.070874   -0.251243
      9          6           0        0.287859   -0.012649    0.045855
     10         16           0       -0.521043   -1.572504    0.214673
     11          6           0       -2.079993   -0.822296    0.092317
     12          6           0       -1.959920    0.525643   -0.065189
     13          6           0       -0.609289    0.997176   -0.100432
     14          1           0       -0.342651    2.026065   -0.251210
     15         16           0       -3.519816    1.282004   -0.186429
     16          6           0       -4.303601   -0.267744   -0.017223
     17          6           0       -3.435124   -1.291261    0.122218
     18          1           0       -5.378753   -0.324065   -0.032476
     19          1           0       -3.732621   -2.320534    0.238793
     20          1           0        3.019754    3.181479    0.545125
     21          1           0        1.416498    2.674916    1.067520
     22          1           0        1.736339    2.991030   -0.640910
 ---------------------------------------------------------------------

 The electronic state is 1-A.
 Alpha  occ. eigenvalues --  -91.99047 -91.98925 -91.98557 -11.29386 -11.28092
 Alpha  occ. eigenvalues --  -11.27755 -11.27288 -11.27181 -11.27135 -11.25828
 Alpha  occ. eigenvalues --  -11.25691 -11.25640 -11.24505 -11.24228  -8.99229
 Alpha  occ. eigenvalues --   -8.99128  -8.98818  -6.67396  -6.67318  -6.67296
 Alpha  occ. eigenvalues --   -6.67214  -6.67112  -6.67002  -6.66987  -6.66894
 Alpha  occ. eigenvalues --   -6.66701  -1.21822  -1.18787  -1.12880  -1.04402
 Alpha  occ. eigenvalues --   -1.02447  -1.02012  -0.95934  -0.94510  -0.92353
 Alpha  occ. eigenvalues --   -0.82373  -0.77402  -0.77058  -0.72711  -0.70307
 Alpha  occ. eigenvalues --   -0.67518  -0.66929  -0.60643  -0.59490  -0.59112
 Alpha  occ. eigenvalues --   -0.56712  -0.56390  -0.54980  -0.54258  -0.52446
 Alpha  occ. eigenvalues --   -0.52183  -0.51437  -0.49382  -0.47453  -0.47025
 Alpha  occ. eigenvalues --   -0.45634  -0.39335  -0.35692  -0.34430  -0.32233
 Alpha  occ. eigenvalues --   -0.27796
 Alpha virt. eigenvalues --    0.03325   0.03530   0.03951   0.04924   0.05040
 Alpha virt. eigenvalues --    0.05605   0.06402   0.06717   0.08077   0.08213
 Alpha virt. eigenvalues --    0.09285   0.09747   0.10303   0.10856   0.10995

 Mulliken charges:
               1
     1  C    0.551196
     2  C   -0.314580
     3  C    0.051616
     4  C    0.539595
     5  C   -0.276994
     6  H   -0.529794
     7  S    0.503244
     8  H   -0.385690
     9  C   -0.270261
    10  S    0.522441
    11  C   -0.577721
    12  C   -0.253509
    13  C    0.860652
    14  H   -0.682721
    15  S    0.514174
    16  C   -0.146864
    17  C    0.462143
    18  H   -0.387645
    19  H   -0.335348
    20  H   -0.293909
    21  H    0.217302
    22  H    0.232673
 Sum of Mulliken charges =  -0.00000

 Dipole moment (field-independent basis, Debye):
    X=              0.4928    Y=              1.1460    Z=              0.0411  Tot=              1.2481
 Quadrupole moment (field-independent basis, Debye-Ang):
   XX=            -86.4988   YY=            -98.2399   ZZ=           -111.5736
   XY=              7.1624   XZ=             -0.4900   YZ=             -0.1592

 Normal termination of Gaussian 16 at Mon Oct 25 22:37:20 2021.
