 Gaussian 16, Revision C.01,
 Gaussian 16:  ES64L-G16RevC.01  3-Jul-2019

 ---------------------------------
 # opt=modredundant hf/aug-cc-pvdz
 ---------------------------------

 -------------
 pBTTT_-35.pdb
 -------------
 Symbolic Z-matrix:
 Charge =  0 Multiplicity = 1

 SCF Done:  E(RHF) =  -1613.75347110     A.U. after   18 cycles
 SCF Done:  E(RHF) =  -1613.79511714     A.U. after   16 cycles
 SCF Done:  E(RHF) =  -1613.80902471     A.U. after   16 cycles
 SCF Done:  E(RHF) =  -1613.81177349     A.U. after   15 cycles
 SCF Done:  E(RHF) =  -1613.81219956     A.U. after   14 cycles
 SCF Done:  E(RHF) =  -1613.81297591     A.U. after   15 cycles
 SCF Done:  E(RHF) =  -1613.81309899     A.U. after   14 cycles
 SCF Done:  E(RHF) =  -1613.81317340     A.U. after   14 cycles
 SCF Done:  E(RHF) =  -1613.81325049     A.U. after   13 cycles
 SCF Done:  E(RHF) =  -1613.81334053     A.U. after   13 cycles
 SCF Done:  E(RHF) =  -1613.81339160     A.U. after   12 cycles
 SCF Done:  E(RHF) =  -1613.81342802     A.U. after   12 cycles
 SCF Done:  E(RHF) =  -1613.81343344     A.U. after   11 cycles
 SCF Done:  E(RHF) =  -1613.81343387     A.U. after   10 cycles
 SCF Done:  E(RHF) =  -1613.81343396     A.U. after    9 cycles
 SCF Done:  E(RHF) =  -1613.81343399     A.U. after    9 cycles
 Optimization completed.
    -- Stationary point found.

                         Standard orientation:
 ---------------------------------------------------------------------
 Center     Atomic      Atomic             Coordinates (Angstroms)
 Number     Number       Type             X           Y           Z
 ---------------------------------------------------------------------
      1          6           0       -4.032952    0.269148    0.179832
      2          6           0       -2.702752    0.809594    0.314956
      3          6           0       -1.749182   -0.121030    0.040351
      4          6           0       -2.480269    2.238331    0.745497
      5          6           0       -4.058860   -1.026269   -0.190097
      6          1           0       -4.922604    0.849853    0.371413
      7         16           0       -2.467132   -1.651640   -0.409962
      8          1           0       -4.920780   -1.652762   -0.344641
      9          6           0       -0.283004   -0.012787    0.019038
     10         16           0        0.527972    1.456286   -0.514390
     11          6           0        2.083801    0.727796   -0.267468
     12          6           0        1.957802   -0.552581    0.184407
     13          6           0        0.603443   -0.982439    0.354445
     14          1           0        0.309352   -1.953687    0.716855
     15         16           0        3.513988   -1.281286    0.440387
     16          6           0        4.305229    0.184715   -0.077775
     17          6           0        3.442061    1.163542   -0.421089
     18          1           0        5.380879    0.229456   -0.097881
     19          1           0        3.745178    2.138598   -0.766057
     20          1           0       -3.295233    2.559156    1.392993
     21          1           0       -2.457149    2.910837   -0.113604
     22          1           0       -1.548785    2.356689    1.291781
 ---------------------------------------------------------------------

 The electronic state is 1-A.
 Alpha  occ. eigenvalues --  -91.99086 -91.99031 -91.98450 -11.29117 -11.27845
 Alpha  occ. eigenvalues --  -11.27769 -11.27310 -11.27165 -11.27127 -11.25838
 Alpha  occ. eigenvalues --  -11.25618 -11.25591 -11.24397 -11.23698  -8.99265
 Alpha  occ. eigenvalues --   -8.99213  -8.98690  -6.67431  -6.67380  -6.67351
 Alpha  occ. eigenvalues --   -6.67302  -6.67142  -6.67095  -6.66858  -6.66765
 Alpha  occ. eigenvalues --   -6.66572  -1.21819  -1.18651  -1.12902  -1.03994
 Alpha  occ. eigenvalues --   -1.02742  -1.01750  -0.95593  -0.94767  -0.92046
 Alpha  occ. eigenvalues --   -0.82252  -0.77813  -0.76632  -0.71876  -0.70324
 Alpha  occ. eigenvalues --   -0.67506  -0.66937  -0.60535  -0.59182  -0.58967
 Alpha  occ. eigenvalues --   -0.56799  -0.56469  -0.54874  -0.53847  -0.52471
 Alpha  occ. eigenvalues --   -0.51686  -0.51490  -0.49649  -0.47217  -0.46602
 Alpha  occ. eigenvalues --   -0.45999  -0.39152  -0.35168  -0.34218  -0.32312
 Alpha  occ. eigenvalues --   -0.28392
 Alpha virt. eigenvalues --    0.03447   0.03479   0.04097   0.04814   0.04883
 Alpha virt. eigenvalues --    0.05849   0.06063   0.06928   0.07576   0.08561
 Alpha virt. eigenvalues --    0.09303   0.09637   0.10403   0.10500   0.11083

 Mulliken charges:
               1
     1  C    0.520561
     2  C   -0.805267
     3  C    0.850953
     4  C    0.561750
     5  C   -0.318514
     6  H   -0.499864
     7  S    0.425160
     8  H   -0.364123
     9  C    0.005295
    10  S    0.420438
    11  C   -0.700586
    12  C   -0.241875
    13  C    0.349071
    14  H   -0.518880
    15  S    0.564678
    16  C   -0.119115
    17  C    0.527295
    18  H   -0.385086
    19  H   -0.328133
    20  H   -0.144668
    21  H    0.135269
    22  H    0.065643
 Sum of Mulliken charges =  -0.00000

 Dipole moment (field-independent basis, Debye):
    X=             -0.5447    Y=              1.1965    Z=              0.3675  Tot=              1.3650
 Quadrupole moment (field-independent basis, Debye-Ang):
   XX=            -86.2240   YY=            -99.8272   ZZ=           -110.3113
   XY=              2.3613   XZ=             -2.3115   YZ=             -0.7456

 Normal termination of Gaussian 16 at Tue Oct 26 00:53:33 2021.
