 Gaussian 16, Revision C.01,
 Gaussian 16:  ES64L-G16RevC.01  3-Jul-2019

 ---------------------------------
 # opt=modredundant hf/aug-cc-pvdz
 ---------------------------------

 ------------
 pBTTT_85.pdb
 ------------
 Symbolic Z-matrix:
 Charge =  0 Multiplicity = 1

 SCF Done:  E(RHF) =  -1613.75089675     A.U. after   18 cycles
 SCF Done:  E(RHF) =  -1613.79405080     A.U. after   16 cycles
 SCF Done:  E(RHF) =  -1613.80921742     A.U. after   15 cycles
 SCF Done:  E(RHF) =  -1613.81222759     A.U. after   16 cycles
 SCF Done:  E(RHF) =  -1613.81259847     A.U. after   13 cycles
 SCF Done:  E(RHF) =  -1613.81338062     A.U. after   13 cycles
 SCF Done:  E(RHF) =  -1613.81341012     A.U. after   13 cycles
 SCF Done:  E(RHF) =  -1613.81343658     A.U. after   13 cycles
 SCF Done:  E(RHF) =  -1613.81345361     A.U. after   12 cycles
 SCF Done:  E(RHF) =  -1613.81345553     A.U. after   11 cycles
 SCF Done:  E(RHF) =  -1613.81337613     A.U. after   14 cycles
 SCF Done:  E(RHF) =  -1613.81372126     A.U. after   10 cycles
 SCF Done:  E(RHF) =  -1613.81414850     A.U. after   14 cycles
 SCF Done:  E(RHF) =  -1613.81438496     A.U. after   14 cycles
 SCF Done:  E(RHF) =  -1613.80249269     A.U. after   16 cycles
 SCF Done:  E(RHF) =  -1613.81458127     A.U. after   13 cycles
 SCF Done:  E(RHF) =  -1613.81467291     A.U. after   13 cycles
 SCF Done:  E(RHF) =  -1613.81476381     A.U. after   12 cycles
 SCF Done:  E(RHF) =  -1613.81476440     A.U. after    9 cycles
 SCF Done:  E(RHF) =  -1613.81476447     A.U. after    9 cycles
 Optimization completed.
    -- Stationary point found.

                         Standard orientation:
 ---------------------------------------------------------------------
 Center     Atomic      Atomic             Coordinates (Angstroms)
 Number     Number       Type             X           Y           Z
 ---------------------------------------------------------------------
      1          6           0        3.988530    0.424400    0.425975
      2          6           0        2.611221    0.840257    0.541873
      3          6           0        1.758979   -0.093178    0.052560
      4          6           0        2.215549    2.161009    1.145641
      5          6           0        4.135130   -0.789916   -0.140305
      6          1           0        4.817956    1.027833    0.763050
      7         16           0        2.613570   -1.488076   -0.561042
      8          1           0        5.052641   -1.319655   -0.333729
      9          6           0        0.284448   -0.042165   -0.010081
     10         16           0       -0.521524    0.751016   -1.357366
     11          6           0       -2.077587    0.364255   -0.690498
     12          6           0       -1.951490   -0.329688    0.477264
     13          6           0       -0.593621   -0.568642    0.871532
     14          1           0       -0.289338   -1.099322    1.758913
     15         16           0       -3.506976   -0.717326    1.147410
     16          6           0       -4.299180    0.079769   -0.186436
     17          6           0       -3.437572    0.605762   -1.081602
     18          1           0       -5.374924    0.108520   -0.224971
     19          1           0       -3.741839    1.134383   -1.970142
     20          1           0        2.639070    2.986231    0.571402
     21          1           0        2.592614    2.241024    2.166223
     22          1           0        1.136272    2.279993    1.169690
 ---------------------------------------------------------------------

 The electronic state is 1-A.
 Alpha  occ. eigenvalues --  -91.99060 -91.98949 -91.98335 -11.28759 -11.27816
 Alpha  occ. eigenvalues --  -11.27418 -11.27311 -11.27156 -11.27126 -11.25816
 Alpha  occ. eigenvalues --  -11.25815 -11.25505 -11.24278 -11.23570  -8.99241
 Alpha  occ. eigenvalues --   -8.99103  -8.98549  -6.67408  -6.67330  -6.67266
 Alpha  occ. eigenvalues --   -6.67184  -6.67124  -6.66978  -6.66713  -6.66621
 Alpha  occ. eigenvalues --   -6.66430  -1.21734  -1.18538  -1.12854  -1.03889
 Alpha  occ. eigenvalues --   -1.02517  -1.01564  -0.95780  -0.94650  -0.91795
 Alpha  occ. eigenvalues --   -0.82071  -0.77439  -0.76410  -0.72547  -0.70016
 Alpha  occ. eigenvalues --   -0.67338  -0.66869  -0.60671  -0.59069  -0.58818
 Alpha  occ. eigenvalues --   -0.56712  -0.56324  -0.54694  -0.53792  -0.52490
 Alpha  occ. eigenvalues --   -0.51681  -0.50976  -0.49489  -0.47384  -0.46257
 Alpha  occ. eigenvalues --   -0.46006  -0.38813  -0.34193  -0.33019  -0.32206
 Alpha  occ. eigenvalues --   -0.30606
 Alpha virt. eigenvalues --    0.03403   0.03482   0.04172   0.04639   0.04901
 Alpha virt. eigenvalues --    0.05704   0.06160   0.07347   0.08406   0.08682
 Alpha virt. eigenvalues --    0.08808   0.08990   0.10166   0.10340   0.11072

 Mulliken charges:
               1
     1  C    0.743045
     2  C   -1.213360
     3  C    0.923091
     4  C    0.470495
     5  C   -0.309986
     6  H   -0.484268
     7  S    0.296362
     8  H   -0.358984
     9  C    0.441808
    10  S    0.345239
    11  C   -0.758947
    12  C   -0.389387
    13  C    0.192111
    14  H   -0.483940
    15  S    0.633519
    16  C   -0.050777
    17  C    0.692172
    18  H   -0.381667
    19  H   -0.326784
    20  H    0.077418
    21  H    0.058625
    22  H   -0.115784
 Sum of Mulliken charges =  -0.00000

 Dipole moment (field-independent basis, Debye):
    X=              0.3831    Y=              1.1266    Z=              0.5805  Tot=              1.3240
 Quadrupole moment (field-independent basis, Debye-Ang):
   XX=            -86.8094   YY=           -105.1069   ZZ=           -104.8944
   XY=             -0.4469   XZ=              5.3434   YZ=             -1.0590

 1\1\GINC-CX3-12-27\FOpt\RHF\Aug-CC-pVDZ\C11H8S3\NS5018\26-Oct-2021\0\\
 # opt=modredundant hf/aug-cc-pvdz\\pBTTT_85.pdb\\0,1\C,-4.2325218024,-
 1.3048452005,-0.2976202131\C,-2.8550791287,-1.0674016636,-0.6576509328
 \C,-2.1131671382,-2.199701621,-0.5905204214\C,-2.3489018184,0.29242874
 48,-1.0578062352\C,-4.4870801729,-2.5877455405,0.0281021916\H,-4.98379
 21866,-0.5294285367,-0.2930266004\S,-3.0720136741,-3.5698225434,-0.084
 6007931\H,-5.4286976086,-3.0167197971,0.3267662199\C,-0.6748413739,-2.
 3692230887,-0.8790503486\S,0.5260111483,-2.043647972,0.3642755939\C,1.

 Normal termination of Gaussian 16 at Tue Oct 26 01:34:50 2021.
