 Gaussian 16, Revision C.01,
 Gaussian 16:  ES64L-G16RevC.01  3-Jul-2019

 ---------------------------------
 # opt=modredundant hf/aug-cc-pvdz
 ---------------------------------

 -------------
 pBTTT_145.pdb
 -------------
 Symbolic Z-matrix:
 Charge =  0 Multiplicity = 1

 SCF Done:  E(RHF) =  -1613.75270109     A.U. after   18 cycles
 SCF Done:  E(RHF) =  -1613.79446360     A.U. after   16 cycles
 SCF Done:  E(RHF) =  -1613.80841261     A.U. after   15 cycles
 SCF Done:  E(RHF) =  -1613.81148066     A.U. after   15 cycles
 SCF Done:  E(RHF) =  -1613.81214132     A.U. after   14 cycles
 SCF Done:  E(RHF) =  -1613.81304023     A.U. after   15 cycles
 SCF Done:  E(RHF) =  -1613.81319032     A.U. after   14 cycles
 SCF Done:  E(RHF) =  -1613.81339179     A.U. after   12 cycles
 SCF Done:  E(RHF) =  -1613.81358056     A.U. after   13 cycles
 SCF Done:  E(RHF) =  -1613.81366614     A.U. after   13 cycles
 SCF Done:  E(RHF) =  -1613.81370356     A.U. after   12 cycles
 SCF Done:  E(RHF) =  -1613.81371407     A.U. after   11 cycles
 SCF Done:  E(RHF) =  -1613.81371519     A.U. after   11 cycles
 SCF Done:  E(RHF) =  -1613.81371543     A.U. after   10 cycles
 SCF Done:  E(RHF) =  -1613.81371552     A.U. after    9 cycles
 Optimization completed.
    -- Stationary point found.

                         Standard orientation:
 ---------------------------------------------------------------------
 Center     Atomic      Atomic             Coordinates (Angstroms)
 Number     Number       Type             X           Y           Z
 ---------------------------------------------------------------------
      1          6           0       -3.959949    0.757223    0.048668
      2          6           0       -2.572637    1.087395    0.258780
      3          6           0       -1.755913    0.031599   -0.003456
      4          6           0       -2.148055    2.448816    0.745324
      5          6           0       -4.158216   -0.512548   -0.357098
      6          1           0       -4.762688    1.459546    0.215686
      7         16           0       -2.669667   -1.368239   -0.518674
      8          1           0       -5.094490   -1.000633   -0.567854
      9          6           0       -0.288856   -0.026273    0.034317
     10         16           0        0.529587   -1.493587    0.564388
     11          6           0        2.080594   -0.774749    0.262675
     12          6           0        1.947201    0.499723   -0.203603
     13          6           0        0.589546    0.931850   -0.348099
     14          1           0        0.292180    1.887559   -0.744427
     15         16           0        3.498831    1.221242   -0.505259
     16          6           0        4.298693   -0.239095    0.016021
     17          6           0        3.441381   -1.210334    0.393511
     18          1           0        5.374365   -0.287081    0.009591
     19          1           0        3.750002   -2.181453    0.744544
     20          1           0       -2.894782    2.850426    1.429425
     21          1           0       -2.051703    3.152586   -0.083940
     22          1           0       -1.195649    2.406761    1.267459
 ---------------------------------------------------------------------

 The electronic state is 1-A.
 Alpha  occ. eigenvalues --  -91.99069 -91.98974 -91.98469 -11.29083 -11.27819
 Alpha  occ. eigenvalues --  -11.27775 -11.27324 -11.27169 -11.27158 -11.25826
 Alpha  occ. eigenvalues --  -11.25735 -11.25595 -11.24431 -11.23924  -8.99249
 Alpha  occ. eigenvalues --   -8.99154  -8.98708  -6.67416  -6.67339  -6.67319
 Alpha  occ. eigenvalues --   -6.67237  -6.67132  -6.67028  -6.66874  -6.66782
 Alpha  occ. eigenvalues --   -6.66589  -1.21811  -1.18684  -1.12895  -1.04193
 Alpha  occ. eigenvalues --   -1.02442  -1.01878  -0.95903  -0.94565  -0.92097
 Alpha  occ. eigenvalues --   -0.82288  -0.77363  -0.76811  -0.72749  -0.70087
 Alpha  occ. eigenvalues --   -0.67451  -0.66900  -0.60723  -0.59222  -0.58996
 Alpha  occ. eigenvalues --   -0.56710  -0.56339  -0.54714  -0.54138  -0.52521
 Alpha  occ. eigenvalues --   -0.52008  -0.51205  -0.49455  -0.47370  -0.46705
 Alpha  occ. eigenvalues --   -0.46001  -0.39113  -0.35125  -0.34217  -0.32299
 Alpha  occ. eigenvalues --   -0.28515
 Alpha virt. eigenvalues --    0.03379   0.03526   0.04037   0.04895   0.04951
 Alpha virt. eigenvalues --    0.05467   0.06760   0.07059   0.07708   0.08403
 Alpha virt. eigenvalues --    0.08739   0.09747   0.10075   0.10797   0.11027

 Mulliken charges:
               1
     1  C    0.518348
     2  C   -0.687789
     3  C    0.563679
     4  C    0.500922
     5  C   -0.276666
     6  H   -0.488375
     7  S    0.437276
     8  H   -0.362878
     9  C    0.138301
    10  S    0.431818
    11  C   -0.700709
    12  C   -0.349226
    13  C    0.398830
    14  H   -0.498098
    15  S    0.583427
    16  C   -0.081232
    17  C    0.549741
    18  H   -0.383712
    19  H   -0.328346
    20  H   -0.136529
    21  H    0.140457
    22  H    0.030759
 Sum of Mulliken charges =  -0.00000

 Dipole moment (field-independent basis, Debye):
    X=             -0.4151    Y=              1.1269    Z=              0.2869  Tot=              1.2347
 Quadrupole moment (field-independent basis, Debye-Ang):
   XX=            -86.6900   YY=            -99.7483   ZZ=           -110.1736
   XY=             -6.8588   XZ=              1.2272   YZ=             -0.6973

 Normal termination of Gaussian 16 at Tue Oct 26 01:15:26 2021.
