 Gaussian 16, Revision C.01,
 Gaussian 16:  ES64L-G16RevC.01  3-Jul-2019

 ---------------------------------
 # opt=modredundant hf/aug-cc-pvdz
 ---------------------------------

 -------------
 pBTTT_170.pdb
 -------------
 Symbolic Z-matrix:
 Charge =  0 Multiplicity = 1

 SCF Done:  E(RHF) =  -1613.75251569     A.U. after   18 cycles
 SCF Done:  E(RHF) =  -1613.79328903     A.U. after   16 cycles
 SCF Done:  E(RHF) =  -1613.80667467     A.U. after   16 cycles
 SCF Done:  E(RHF) =  -1613.80958901     A.U. after   16 cycles
 SCF Done:  E(RHF) =  -1613.81044635     A.U. after   15 cycles
 SCF Done:  E(RHF) =  -1613.81062013     A.U. after   14 cycles
 SCF Done:  E(RHF) =  -1613.81089792     A.U. after   14 cycles
 SCF Done:  E(RHF) =  -1613.81089818     A.U. after   12 cycles
 SCF Done:  E(RHF) =  -1613.81093696     A.U. after   11 cycles
 SCF Done:  E(RHF) =  -1613.81095000     A.U. after   12 cycles
 SCF Done:  E(RHF) =  -1613.81095696     A.U. after   11 cycles
 SCF Done:  E(RHF) =  -1613.81095924     A.U. after   11 cycles
 SCF Done:  E(RHF) =  -1613.81095991     A.U. after   10 cycles
 SCF Done:  E(RHF) =  -1613.81096006     A.U. after    9 cycles
 Optimization completed.
    -- Stationary point found.

                         Standard orientation:
 ---------------------------------------------------------------------
 Center     Atomic      Atomic             Coordinates (Angstroms)
 Number     Number       Type             X           Y           Z
 ---------------------------------------------------------------------
      1          6           0       -3.964214    0.773663   -0.015101
      2          6           0       -2.576187    1.138778    0.089485
      3          6           0       -1.755687    0.050354    0.025555
      4          6           0       -2.157578    2.574770    0.274888
      5          6           0       -4.169416   -0.550783   -0.158812
      6          1           0       -4.763918    1.497342    0.025485
      7         16           0       -2.682891   -1.418794   -0.181902
      8          1           0       -5.107367   -1.070964   -0.250197
      9          6           0       -0.287843   -0.012631    0.045582
     10         16           0        0.521002   -1.572536    0.214198
     11          6           0        2.079974   -0.822341    0.092026
     12          6           0        1.959955    0.525663   -0.064914
     13          6           0        0.609332    0.997203   -0.100365
     14          1           0        0.342748    2.026176   -0.250621
     15         16           0        3.519880    1.282068   -0.185566
     16          6           0        4.303579   -0.267829   -0.017400
     17          6           0        3.435081   -1.291399    0.121436
     18          1           0        5.378730   -0.324179   -0.032677
     19          1           0        3.732547   -2.320736    0.237517
     20          1           0       -3.019776    3.181740    0.543810
     21          1           0       -1.736180    2.990762   -0.641944
     22          1           0       -1.416615    2.675366    1.066671
 ---------------------------------------------------------------------

 The electronic state is 1-A.
 Alpha  occ. eigenvalues --  -91.99047 -91.98925 -91.98557 -11.29386 -11.28092
 Alpha  occ. eigenvalues --  -11.27755 -11.27288 -11.27181 -11.27135 -11.25828
 Alpha  occ. eigenvalues --  -11.25691 -11.25639 -11.24505 -11.24228  -8.99229
 Alpha  occ. eigenvalues --   -8.99128  -8.98818  -6.67396  -6.67318  -6.67296
 Alpha  occ. eigenvalues --   -6.67214  -6.67112  -6.67001  -6.66987  -6.66894
 Alpha  occ. eigenvalues --   -6.66701  -1.21822  -1.18787  -1.12880  -1.04402
 Alpha  occ. eigenvalues --   -1.02447  -1.02012  -0.95934  -0.94510  -0.92353
 Alpha  occ. eigenvalues --   -0.82373  -0.77402  -0.77058  -0.72711  -0.70307
 Alpha  occ. eigenvalues --   -0.67518  -0.66929  -0.60642  -0.59491  -0.59112
 Alpha  occ. eigenvalues --   -0.56711  -0.56390  -0.54980  -0.54258  -0.52446
 Alpha  occ. eigenvalues --   -0.52183  -0.51437  -0.49382  -0.47453  -0.47025
 Alpha  occ. eigenvalues --   -0.45634  -0.39336  -0.35692  -0.34431  -0.32233
 Alpha  occ. eigenvalues --   -0.27795
 Alpha virt. eigenvalues --    0.03325   0.03530   0.03951   0.04924   0.05040
 Alpha virt. eigenvalues --    0.05606   0.06402   0.06716   0.08077   0.08213
 Alpha virt. eigenvalues --    0.09285   0.09747   0.10304   0.10856   0.10996

 Mulliken charges:
               1
     1  C    0.551402
     2  C   -0.314254
     3  C    0.051078
     4  C    0.539549
     5  C   -0.276958
     6  H   -0.529857
     7  S    0.503194
     8  H   -0.385728
     9  C   -0.271098
    10  S    0.522581
    11  C   -0.577646
    12  C   -0.252962
    13  C    0.861289
    14  H   -0.683032
    15  S    0.514106
    16  C   -0.146912
    17  C    0.462083
    18  H   -0.387668
    19  H   -0.335357
    20  H   -0.293986
    21  H    0.232725
    22  H    0.217452
 Sum of Mulliken charges =  -0.00000

 Dipole moment (field-independent basis, Debye):
    X=             -0.4929    Y=              1.1460    Z=              0.0414  Tot=              1.2482
 Quadrupole moment (field-independent basis, Debye-Ang):
   XX=            -86.4987   YY=            -98.2379   ZZ=           -111.5751
   XY=             -7.1623   XZ=              0.4849   YZ=             -0.1581

 Normal termination of Gaussian 16 at Tue Oct 26 01:32:57 2021.
