 Gaussian 16, Revision C.01,
 Gaussian 16:  ES64L-G16RevC.01  3-Jul-2019

 ---------------------------------
 # opt=modredundant hf/aug-cc-pvdz
 ---------------------------------

 -------------
 pBTTT_-60.pdb
 -------------
 Symbolic Z-matrix:
 Charge =  0 Multiplicity = 1

 SCF Done:  E(RHF) =  -1613.75224170     A.U. after   17 cycles
 SCF Done:  E(RHF) =  -1613.79489598     A.U. after   15 cycles
 SCF Done:  E(RHF) =  -1613.80956330     A.U. after   15 cycles
 SCF Done:  E(RHF) =  -1613.81235753     A.U. after   15 cycles
 SCF Done:  E(RHF) =  -1613.81277617     A.U. after   15 cycles
 SCF Done:  E(RHF) =  -1613.81358149     A.U. after   14 cycles
 SCF Done:  E(RHF) =  -1613.81365983     A.U. after   13 cycles
 SCF Done:  E(RHF) =  -1613.81374193     A.U. after   14 cycles
 SCF Done:  E(RHF) =  -1613.81387241     A.U. after   12 cycles
 SCF Done:  E(RHF) =  -1613.81420738     A.U. after   14 cycles
 SCF Done:  E(RHF) =  -1613.81435772     A.U. after   14 cycles
 SCF Done:  E(RHF) =  -1613.81459913     A.U. after   14 cycles
 SCF Done:  E(RHF) =  -1613.81470316     A.U. after   13 cycles
 SCF Done:  E(RHF) =  -1613.81472064     A.U. after   12 cycles
 SCF Done:  E(RHF) =  -1613.81472237     A.U. after   11 cycles
 SCF Done:  E(RHF) =  -1613.81472272     A.U. after   10 cycles
 Optimization completed.
    -- Stationary point found.

                         Standard orientation:
 ---------------------------------------------------------------------
 Center     Atomic      Atomic             Coordinates (Angstroms)
 Number     Number       Type             X           Y           Z
 ---------------------------------------------------------------------
      1          6           0       -4.014340    0.308799    0.331244
      2          6           0       -2.660935    0.776121    0.509196
      3          6           0       -1.753688   -0.115914    0.036897
      4          6           0       -2.354208    2.091168    1.176831
      5          6           0       -4.094038   -0.901062   -0.257654
      6          1           0       -4.878115    0.872015    0.651346
      7         16           0       -2.531790   -1.527991   -0.636941
      8          1           0       -4.982296   -1.464050   -0.489414
      9          6           0       -0.282829   -0.027679    0.006789
     10         16           0        0.519833    1.273410   -0.863799
     11          6           0        2.078360    0.634413   -0.441480
     12          6           0        1.955824   -0.504412    0.299420
     13          6           0        0.600436   -0.890300    0.559962
     14          1           0        0.301956   -1.752846    1.133077
     15         16           0        3.513542   -1.145397    0.724950
     16          6           0        4.301374    0.160560   -0.121308
     17          6           0        3.436502    1.026970   -0.688777
     18          1           0        5.376968    0.204523   -0.147299
     19          1           0        3.737776    1.894395   -1.253039
     20          1           0       -2.919637    2.179793    2.104953
     21          1           0       -2.638489    2.927088    0.535598
     22          1           0       -1.298284    2.186745    1.410680
 ---------------------------------------------------------------------

 The electronic state is 1-A.
 Alpha  occ. eigenvalues --  -91.99046 -91.99017 -91.98403 -11.28887 -11.27798
 Alpha  occ. eigenvalues --  -11.27581 -11.27314 -11.27168 -11.27108 -11.25824
 Alpha  occ. eigenvalues --  -11.25749 -11.25508 -11.24326 -11.23578  -8.99229
 Alpha  occ. eigenvalues --   -8.99177  -8.98624  -6.67395  -6.67341  -6.67317
 Alpha  occ. eigenvalues --   -6.67260  -6.67111  -6.67052  -6.66788  -6.66696
 Alpha  occ. eigenvalues --   -6.66504  -1.21767  -1.18583  -1.12876  -1.03895
 Alpha  occ. eigenvalues --   -1.02612  -1.01649  -0.95691  -0.94715  -0.91871
 Alpha  occ. eigenvalues --   -0.82136  -0.77592  -0.76517  -0.72230  -0.70146
 Alpha  occ. eigenvalues --   -0.67384  -0.66889  -0.60600  -0.59134  -0.58858
 Alpha  occ. eigenvalues --   -0.56749  -0.56345  -0.54770  -0.53786  -0.52520
 Alpha  occ. eigenvalues --   -0.51659  -0.51143  -0.49561  -0.47330  -0.46369
 Alpha  occ. eigenvalues --   -0.46036  -0.38919  -0.34382  -0.33910  -0.32269
 Alpha  occ. eigenvalues --   -0.29508
 Alpha virt. eigenvalues --    0.03438   0.03484   0.04164   0.04719   0.04871
 Alpha virt. eigenvalues --    0.05897   0.05963   0.07402   0.07865   0.08635
 Alpha virt. eigenvalues --    0.08848   0.09252   0.10330   0.10589   0.11239

 Mulliken charges:
               1
     1  C    0.576589
     2  C   -1.008069
     3  C    0.882967
     4  C    0.504334
     5  C   -0.264211
     6  H   -0.482853
     7  S    0.351406
     8  H   -0.357929
     9  C    0.229306
    10  S    0.335853
    11  C   -0.725486
    12  C   -0.276855
    13  C    0.261085
    14  H   -0.490496
    15  S    0.611614
    16  C   -0.087005
    17  C    0.616288
    18  H   -0.382280
    19  H   -0.325496
    20  H   -0.003411
    21  H    0.118639
    22  H   -0.083989
 Sum of Mulliken charges =  -0.00000

 Dipole moment (field-independent basis, Debye):
    X=             -0.4571    Y=              1.1002    Z=              0.5902  Tot=              1.3295
 Quadrupole moment (field-independent basis, Debye-Ang):
   XX=            -86.5569   YY=           -101.9352   ZZ=           -108.1134
   XY=              2.0800   XZ=             -3.7839   YZ=             -1.1437

 Normal termination of Gaussian 16 at Tue Oct 26 00:36:02 2021.
