 Gaussian 16, Revision C.01,
 Gaussian 16:  ES64L-G16RevC.01  3-Jul-2019

 ---------------------------------
 # opt=modredundant hf/aug-cc-pvdz
 ---------------------------------

 --------------
 pBTTT_-115.pdb
 --------------
 Symbolic Z-matrix:
 Charge =  0 Multiplicity = 1

 SCF Done:  E(RHF) =  -1613.75058493     A.U. after   18 cycles
 SCF Done:  E(RHF) =  -1613.79357482     A.U. after   15 cycles
 SCF Done:  E(RHF) =  -1613.80886645     A.U. after   15 cycles
 SCF Done:  E(RHF) =  -1613.81177937     A.U. after   16 cycles
 SCF Done:  E(RHF) =  -1613.81228858     A.U. after   14 cycles
 SCF Done:  E(RHF) =  -1613.81314439     A.U. after   14 cycles
 SCF Done:  E(RHF) =  -1613.81307272     A.U. after   14 cycles
 SCF Done:  E(RHF) =  -1613.81331982     A.U. after   13 cycles
 SCF Done:  E(RHF) =  -1613.81343457     A.U. after   13 cycles
 SCF Done:  E(RHF) =  -1613.81375507     A.U. after   15 cycles
 SCF Done:  E(RHF) =  -1613.81404965     A.U. after   12 cycles
 SCF Done:  E(RHF) =  -1613.81453782     A.U. after   14 cycles
 SCF Done:  E(RHF) =  -1613.81456051     A.U. after   14 cycles
 SCF Done:  E(RHF) =  -1613.81469470     A.U. after   14 cycles
 SCF Done:  E(RHF) =  -1613.81469936     A.U. after   11 cycles
 SCF Done:  E(RHF) =  -1613.81469990     A.U. after   10 cycles
 SCF Done:  E(RHF) =  -1613.81469995     A.U. after    8 cycles
 Optimization completed.
    -- Stationary point found.

                         Standard orientation:
 ---------------------------------------------------------------------
 Center     Atomic      Atomic             Coordinates (Angstroms)
 Number     Number       Type             X           Y           Z
 ---------------------------------------------------------------------
      1          6           0        3.964004    0.702449    0.154837
      2          6           0        2.573074    0.994645    0.406645
      3          6           0        1.758133    0.022337   -0.074031
      4          6           0        2.137556    2.236454    1.138109
      5          6           0        4.159430   -0.466125   -0.487022
      6          1           0        4.768226    1.354235    0.461636
      7         16           0        2.668569   -1.266205   -0.828058
      8          1           0        5.096527   -0.907836   -0.781048
      9          6           0        0.286760   -0.040963   -0.026867
     10         16           0       -0.525301   -1.294477    0.903744
     11          6           0       -2.078309   -0.668972    0.442986
     12          6           0       -1.947827    0.425351   -0.360931
     13          6           0       -0.588952    0.787043   -0.639356
     14          1           0       -0.282813    1.606698   -1.268461
     15         16           0       -3.501004    1.051210   -0.824626
     16          6           0       -4.298156   -0.199620    0.093472
     17          6           0       -3.439509   -1.037741    0.710448
     18          1           0       -5.374043   -0.236144    0.118918
     19          1           0       -3.746789   -1.870862    1.321204
     20          1           0        2.702330    2.345338    2.064561
     21          1           0        1.080075    2.205043    1.383049
     22          1           0        2.323045    3.125949    0.533446
 ---------------------------------------------------------------------

 The electronic state is 1-A.
 Alpha  occ. eigenvalues --  -91.99067 -91.98957 -91.98347 -11.28830 -11.27800
 Alpha  occ. eigenvalues --  -11.27545 -11.27307 -11.27163 -11.27156 -11.25814
 Alpha  occ. eigenvalues --  -11.25788 -11.25567 -11.24318 -11.23664  -8.99247
 Alpha  occ. eigenvalues --   -8.99115  -8.98570  -6.67414  -6.67336  -6.67278
 Alpha  occ. eigenvalues --   -6.67196  -6.67130  -6.66989  -6.66735  -6.66643
 Alpha  occ. eigenvalues --   -6.66451  -1.21751  -1.18572  -1.12865  -1.03989
 Alpha  occ. eigenvalues --   -1.02452  -1.01671  -0.95849  -0.94594  -0.91877
 Alpha  occ. eigenvalues --   -0.82142  -0.77353  -0.76517  -0.72740  -0.69971
 Alpha  occ. eigenvalues --   -0.67375  -0.66867  -0.60739  -0.59071  -0.58854
 Alpha  occ. eigenvalues --   -0.56694  -0.56337  -0.54654  -0.53880  -0.52540
 Alpha  occ. eigenvalues --   -0.51794  -0.50989  -0.49479  -0.47358  -0.46294
 Alpha  occ. eigenvalues --   -0.46141  -0.38872  -0.34284  -0.33784  -0.32187
 Alpha  occ. eigenvalues --   -0.29827
 Alpha virt. eigenvalues --    0.03394   0.03513   0.04106   0.04732   0.04930
 Alpha virt. eigenvalues --    0.05533   0.06501   0.07348   0.08214   0.08494
 Alpha virt. eigenvalues --    0.08805   0.09121   0.10282   0.10611   0.10813

 Mulliken charges:
               1
     1  C    0.694409
     2  C   -1.139854
     3  C    0.891737
     4  C    0.499644
     5  C   -0.307615
     6  H   -0.481122
     7  S    0.334297
     8  H   -0.359617
     9  C    0.371355
    10  S    0.385723
    11  C   -0.773446
    12  C   -0.353458
    13  C    0.216141
    14  H   -0.478126
    15  S    0.624978
    16  C   -0.054034
    17  C    0.635843
    18  H   -0.379086
    19  H   -0.329354
    20  H    0.008404
    21  H   -0.107632
    22  H    0.100813
 Sum of Mulliken charges =  -0.00000

 Dipole moment (field-independent basis, Debye):
    X=              0.3702    Y=              1.1013    Z=              0.5926  Tot=              1.3042
 Quadrupole moment (field-independent basis, Debye-Ang):
   XX=            -86.8721   YY=           -102.3236   ZZ=           -107.6347
   XY=              6.0461   XZ=             -1.9267   YZ=             -1.2013

 Normal termination of Gaussian 16 at Mon Oct 25 23:57:18 2021.
