 Gaussian 16, Revision C.01,
 Gaussian 16:  ES64L-G16RevC.01  3-Jul-2019

 ---------------------------------
 # opt=modredundant hf/aug-cc-pvdz
 ---------------------------------

 -------------
 pBTTT_155.pdb
 -------------
 Symbolic Z-matrix:
 Charge =  0 Multiplicity = 1

 SCF Done:  E(RHF) =  -1613.75275241     A.U. after   18 cycles
 SCF Done:  E(RHF) =  -1613.79401643     A.U. after   16 cycles
 SCF Done:  E(RHF) =  -1613.80775682     A.U. after   16 cycles
 SCF Done:  E(RHF) =  -1613.81087458     A.U. after   15 cycles
 SCF Done:  E(RHF) =  -1613.81163896     A.U. after   15 cycles
 SCF Done:  E(RHF) =  -1613.81228542     A.U. after   15 cycles
 SCF Done:  E(RHF) =  -1613.81247155     A.U. after   14 cycles
 SCF Done:  E(RHF) =  -1613.81256404     A.U. after   13 cycles
 SCF Done:  E(RHF) =  -1613.81265231     A.U. after   12 cycles
 SCF Done:  E(RHF) =  -1613.81270823     A.U. after   13 cycles
 SCF Done:  E(RHF) =  -1613.81272059     A.U. after   12 cycles
 SCF Done:  E(RHF) =  -1613.81272411     A.U. after   11 cycles
 SCF Done:  E(RHF) =  -1613.81272485     A.U. after   10 cycles
 SCF Done:  E(RHF) =  -1613.81272504     A.U. after    9 cycles
 Optimization completed.
    -- Stationary point found.

                         Standard orientation:
 ---------------------------------------------------------------------
 Center     Atomic      Atomic             Coordinates (Angstroms)
 Number     Number       Type             X           Y           Z
 ---------------------------------------------------------------------
      1          6           0       -3.960712    0.765633    0.011039
      2          6           0       -2.574785    1.110466    0.198583
      3          6           0       -1.755788    0.037253    0.019127
      4          6           0       -2.154929    2.505270    0.585294
      5          6           0       -4.159357   -0.529962   -0.302978
      6          1           0       -4.763072    1.478786    0.125035
      7         16           0       -2.671052   -1.393713   -0.399563
      8          1           0       -5.094978   -1.032394   -0.479700
      9          6           0       -0.288889   -0.020021    0.054371
     10         16           0        0.528118   -1.532006    0.447418
     11          6           0        2.080683   -0.796746    0.201627
     12          6           0        1.950256    0.513632   -0.150929
     13          6           0        0.594675    0.963237   -0.249285
     14          1           0        0.306702    1.950962   -0.562780
     15         16           0        3.503634    1.253089   -0.395161
     16          6           0        4.299710   -0.250215   -0.006988
     17          6           0        3.439864   -1.247414    0.288345
     18          1           0        5.375116   -0.301612   -0.022873
     19          1           0        3.745862   -2.246582    0.552077
     20          1           0       -2.955640    2.996072    1.136522
     21          1           0       -1.941920    3.115456   -0.294804
     22          1           0       -1.267635    2.494588    1.214184
 ---------------------------------------------------------------------

 The electronic state is 1-A.
 Alpha  occ. eigenvalues --  -91.99064 -91.98961 -91.98507 -11.29200 -11.27925
 Alpha  occ. eigenvalues --  -11.27769 -11.27319 -11.27162 -11.27161 -11.25830
 Alpha  occ. eigenvalues --  -11.25706 -11.25618 -11.24464 -11.24043  -8.99245
 Alpha  occ. eigenvalues --   -8.99150  -8.98754  -6.67412  -6.67334  -6.67316
 Alpha  occ. eigenvalues --   -6.67235  -6.67128  -6.67024  -6.66921  -6.66828
 Alpha  occ. eigenvalues --   -6.66635  -1.21823  -1.18726  -1.12895  -1.04276
 Alpha  occ. eigenvalues --   -1.02445  -1.01938  -0.95916  -0.94547  -0.92195
 Alpha  occ. eigenvalues --   -0.82328  -0.77379  -0.76915  -0.72735  -0.70166
 Alpha  occ. eigenvalues --   -0.67477  -0.66914  -0.60701  -0.59311  -0.59049
 Alpha  occ. eigenvalues --   -0.56716  -0.56350  -0.54797  -0.54202  -0.52495
 Alpha  occ. eigenvalues --   -0.52083  -0.51305  -0.49431  -0.47399  -0.46842
 Alpha  occ. eigenvalues --   -0.45875  -0.39209  -0.35391  -0.34293  -0.32293
 Alpha  occ. eigenvalues --   -0.28180
 Alpha virt. eigenvalues --    0.03363   0.03529   0.04010   0.04923   0.04989
 Alpha virt. eigenvalues --    0.05476   0.06735   0.06822   0.07863   0.08341
 Alpha virt. eigenvalues --    0.08781   0.09938   0.10056   0.10787   0.10902

 Mulliken charges:
               1
     1  C    0.491415
     2  C   -0.516353
     3  C    0.387775
     4  C    0.502087
     5  C   -0.277447
     6  H   -0.499660
     7  S    0.478232
     8  H   -0.369674
     9  C    0.007526
    10  S    0.457285
    11  C   -0.649561
    12  C   -0.351889
    13  C    0.540690
    14  H   -0.545495
    15  S    0.559777
    16  C   -0.100119
    17  C    0.516595
    18  H   -0.385366
    19  H   -0.329782
    20  H   -0.200091
    21  H    0.176743
    22  H    0.107313
 Sum of Mulliken charges =  -0.00000

 Dipole moment (field-independent basis, Debye):
    X=             -0.4399    Y=              1.1331    Z=              0.1736  Tot=              1.2278
 Quadrupole moment (field-independent basis, Debye-Ang):
   XX=            -86.6164   YY=            -99.0800   ZZ=           -110.8086
   XY=             -7.0237   XZ=              0.9851   YZ=             -0.4719

 Normal termination of Gaussian 16 at Tue Oct 26 01:13:18 2021.
