 Gaussian 16, Revision C.01,
 Gaussian 16:  ES64L-G16RevC.01  3-Jul-2019

 ---------------------------------
 # opt=modredundant hf/aug-cc-pvdz
 ---------------------------------

 --------------
 pBTTT_-120.pdb
 --------------
 Symbolic Z-matrix:
 Charge =  0 Multiplicity = 1

 SCF Done:  E(RHF) =  -1613.75074637     A.U. after   18 cycles
 SCF Done:  E(RHF) =  -1613.79359008     A.U. after   15 cycles
 SCF Done:  E(RHF) =  -1613.80881722     A.U. after   15 cycles
 SCF Done:  E(RHF) =  -1613.81172072     A.U. after   16 cycles
 SCF Done:  E(RHF) =  -1613.81226764     A.U. after   14 cycles
 SCF Done:  E(RHF) =  -1613.81313433     A.U. after   14 cycles
 SCF Done:  E(RHF) =  -1613.81308447     A.U. after   14 cycles
 SCF Done:  E(RHF) =  -1613.81336687     A.U. after   13 cycles
 SCF Done:  E(RHF) =  -1613.81360460     A.U. after   13 cycles
 SCF Done:  E(RHF) =  -1613.81363867     A.U. after   15 cycles
 SCF Done:  E(RHF) =  -1613.81418146     A.U. after   14 cycles
 SCF Done:  E(RHF) =  -1613.81438741     A.U. after   14 cycles
 SCF Done:  E(RHF) =  -1613.81453617     A.U. after   13 cycles
 SCF Done:  E(RHF) =  -1613.81465798     A.U. after   13 cycles
 SCF Done:  E(RHF) =  -1613.81468140     A.U. after   12 cycles
 SCF Done:  E(RHF) =  -1613.81468727     A.U. after   11 cycles
 SCF Done:  E(RHF) =  -1613.81468794     A.U. after   10 cycles
 SCF Done:  E(RHF) =  -1613.81468798     A.U. after    8 cycles
 Optimization completed.
    -- Stationary point found.

                         Standard orientation:
 ---------------------------------------------------------------------
 Center     Atomic      Atomic             Coordinates (Angstroms)
 Number     Number       Type             X           Y           Z
 ---------------------------------------------------------------------
      1          6           0        3.962282    0.715581    0.142232
      2          6           0        2.571150    1.012735    0.386106
      3          6           0        1.757572    0.024321   -0.064577
      4          6           0        2.135947    2.274996    1.082333
      5          6           0        4.160074   -0.471283   -0.464307
      6          1           0        4.765348    1.377373    0.430052
      7         16           0        2.670681   -1.283642   -0.781435
      8          1           0        5.097919   -0.920333   -0.744384
      9          6           0        0.287145   -0.039618   -0.020538
     10         16           0       -0.526150   -1.341174    0.840907
     11          6           0       -2.078651   -0.693282    0.410424
     12          6           0       -1.947352    0.442553   -0.333473
     13          6           0       -0.588456    0.819024   -0.590344
     14          1           0       -0.282679    1.669080   -1.177773
     15         16           0       -3.500105    1.090742   -0.766884
     16          6           0       -4.298143   -0.208057    0.081293
     17          6           0       -3.439969   -1.077088    0.654651
     18          1           0       -5.374040   -0.246886    0.102213
     19          1           0       -3.747755   -1.941903    1.219368
     20          1           0        2.729614    2.430980    1.983483
     21          1           0        1.088222    2.234133    1.365155
     22          1           0        2.282974    3.143429    0.437662
 ---------------------------------------------------------------------

 The electronic state is 1-A.
 Alpha  occ. eigenvalues --  -91.99068 -91.98964 -91.98364 -11.28862 -11.27795
 Alpha  occ. eigenvalues --  -11.27588 -11.27309 -11.27165 -11.27158 -11.25815
 Alpha  occ. eigenvalues --  -11.25779 -11.25575 -11.24336 -11.23696  -8.99248
 Alpha  occ. eigenvalues --   -8.99123  -8.98589  -6.67415  -6.67337  -6.67287
 Alpha  occ. eigenvalues --   -6.67206  -6.67131  -6.66998  -6.66755  -6.66662
 Alpha  occ. eigenvalues --   -6.66470  -1.21760  -1.18587  -1.12870  -1.04017
 Alpha  occ. eigenvalues --   -1.02447  -1.01707  -0.95859  -0.94589  -0.91906
 Alpha  occ. eigenvalues --   -0.82166  -0.77349  -0.76561  -0.72750  -0.69978
 Alpha  occ. eigenvalues --   -0.67387  -0.66870  -0.60742  -0.59087  -0.58872
 Alpha  occ. eigenvalues --   -0.56694  -0.56338  -0.54653  -0.53915  -0.52545
 Alpha  occ. eigenvalues --   -0.51825  -0.51012  -0.49479  -0.47353  -0.46349
 Alpha  occ. eigenvalues --   -0.46142  -0.38903  -0.34364  -0.33945  -0.32209
 Alpha  occ. eigenvalues --   -0.29582
 Alpha virt. eigenvalues --    0.03393   0.03517   0.04093   0.04755   0.04934
 Alpha virt. eigenvalues --    0.05516   0.06556   0.07353   0.08065   0.08487
 Alpha virt. eigenvalues --    0.08796   0.09196   0.10274   0.10657   0.10922

 Mulliken charges:
               1
     1  C    0.665164
     2  C   -1.076154
     3  C    0.856138
     4  C    0.502720
     5  C   -0.300811
     6  H   -0.480632
     7  S    0.342511
     8  H   -0.359596
     9  C    0.341771
    10  S    0.387725
    11  C   -0.767784
    12  C   -0.342069
    13  C    0.235990
    14  H   -0.477584
    15  S    0.620499
    16  C   -0.057003
    17  C    0.618306
    18  H   -0.379190
    19  H   -0.329113
    20  H   -0.008675
    21  H   -0.096926
    22  H    0.104715
 Sum of Mulliken charges =  -0.00000

 Dipole moment (field-independent basis, Debye):
    X=              0.3759    Y=              1.1072    Z=              0.5526  Tot=              1.2933
 Quadrupole moment (field-independent basis, Debye-Ang):
   XX=            -86.8516   YY=           -101.8141   ZZ=           -108.1380
   XY=              6.2228   XZ=             -1.7875   YZ=             -1.1434

 Normal termination of Gaussian 16 at Tue Oct 26 00:00:24 2021.
