 Gaussian 16, Revision C.01,
 Gaussian 16:  ES64L-G16RevC.01  3-Jul-2019

 ---------------------------------
 # opt=modredundant hf/aug-cc-pvdz
 ---------------------------------

 --------------
 pBTTT_-145.pdb
 --------------
 Symbolic Z-matrix:
 Charge =  0 Multiplicity = 1

 SCF Done:  E(RHF) =  -1613.75148803     A.U. after   18 cycles
 SCF Done:  E(RHF) =  -1613.79325342     A.U. after   16 cycles
 SCF Done:  E(RHF) =  -1613.80787997     A.U. after   15 cycles
 SCF Done:  E(RHF) =  -1613.81099641     A.U. after   16 cycles
 SCF Done:  E(RHF) =  -1613.81179475     A.U. after   14 cycles
 SCF Done:  E(RHF) =  -1613.81280130     A.U. after   14 cycles
 SCF Done:  E(RHF) =  -1613.81298974     A.U. after   14 cycles
 SCF Done:  E(RHF) =  -1613.81316982     A.U. after   13 cycles
 SCF Done:  E(RHF) =  -1613.81350118     A.U. after   13 cycles
 SCF Done:  E(RHF) =  -1613.81363773     A.U. after   13 cycles
 SCF Done:  E(RHF) =  -1613.81371079     A.U. after   12 cycles
 SCF Done:  E(RHF) =  -1613.81371343     A.U. after   11 cycles
 SCF Done:  E(RHF) =  -1613.81371551     A.U. after   11 cycles
 SCF Done:  E(RHF) =  -1613.81371564     A.U. after    9 cycles
 Optimization completed.
    -- Stationary point found.

                         Standard orientation:
 ---------------------------------------------------------------------
 Center     Atomic      Atomic             Coordinates (Angstroms)
 Number     Number       Type             X           Y           Z
 ---------------------------------------------------------------------
      1          6           0        3.959954    0.757056    0.049152
      2          6           0        2.572652    1.087370    0.258816
      3          6           0        1.755918    0.031602   -0.003363
      4          6           0        2.148028    2.448749    0.745438
      5          6           0        4.158133   -0.512533   -0.357340
      6          1           0        4.762745    1.459289    0.216334
      7         16           0        2.669591   -1.368133   -0.518978
      8          1           0        5.094408   -1.000534   -0.568274
      9          6           0        0.288860   -0.026265    0.034328
     10         16           0       -0.529573   -1.493565    0.564548
     11          6           0       -2.080573   -0.774743    0.262776
     12          6           0       -1.947173    0.499667   -0.203704
     13          6           0       -0.589523    0.931813   -0.348121
     14          1           0       -0.292170    1.887457   -0.744622
     15         16           0       -3.498783    1.221188   -0.505509
     16          6           0       -4.298650   -0.239057    0.016048
     17          6           0       -3.441374   -1.210210    0.393871
     18          1           0       -5.374321   -0.287047    0.009676
     19          1           0       -3.750014   -2.181260    0.745080
     20          1           0        2.894404    2.850006    1.430135
     21          1           0        1.195283    2.406736    1.266941
     22          1           0        2.052393    3.152812   -0.083648
 ---------------------------------------------------------------------

 The electronic state is 1-A.
 Alpha  occ. eigenvalues --  -91.99069 -91.98974 -91.98469 -11.29083 -11.27818
 Alpha  occ. eigenvalues --  -11.27775 -11.27324 -11.27169 -11.27158 -11.25826
 Alpha  occ. eigenvalues --  -11.25735 -11.25594 -11.24431 -11.23923  -8.99249
 Alpha  occ. eigenvalues --   -8.99154  -8.98708  -6.67417  -6.67339  -6.67319
 Alpha  occ. eigenvalues --   -6.67237  -6.67132  -6.67028  -6.66875  -6.66782
 Alpha  occ. eigenvalues --   -6.66589  -1.21811  -1.18685  -1.12895  -1.04193
 Alpha  occ. eigenvalues --   -1.02442  -1.01878  -0.95902  -0.94564  -0.92097
 Alpha  occ. eigenvalues --   -0.82288  -0.77363  -0.76812  -0.72750  -0.70087
 Alpha  occ. eigenvalues --   -0.67451  -0.66900  -0.60723  -0.59223  -0.58996
 Alpha  occ. eigenvalues --   -0.56711  -0.56338  -0.54713  -0.54138  -0.52522
 Alpha  occ. eigenvalues --   -0.52008  -0.51205  -0.49456  -0.47370  -0.46705
 Alpha  occ. eigenvalues --   -0.46001  -0.39114  -0.35124  -0.34217  -0.32299
 Alpha  occ. eigenvalues --   -0.28515
 Alpha virt. eigenvalues --    0.03379   0.03527   0.04037   0.04895   0.04951
 Alpha virt. eigenvalues --    0.05468   0.06760   0.07060   0.07708   0.08403
 Alpha virt. eigenvalues --    0.08739   0.09747   0.10075   0.10797   0.11028

 Mulliken charges:
               1
     1  C    0.518128
     2  C   -0.688200
     3  C    0.563884
     4  C    0.501008
     5  C   -0.276520
     6  H   -0.488329
     7  S    0.437486
     8  H   -0.362876
     9  C    0.138592
    10  S    0.431855
    11  C   -0.700398
    12  C   -0.349392
    13  C    0.398822
    14  H   -0.498017
    15  S    0.583333
    16  C   -0.081110
    17  C    0.549355
    18  H   -0.383728
    19  H   -0.328339
    20  H   -0.136254
    21  H    0.030439
    22  H    0.140263
 Sum of Mulliken charges =  -0.00000

 Dipole moment (field-independent basis, Debye):
    X=              0.4151    Y=              1.1269    Z=              0.2869  Tot=              1.2347
 Quadrupole moment (field-independent basis, Debye-Ang):
   XX=            -86.6910   YY=            -99.7496   ZZ=           -110.1718
   XY=              6.8580   XZ=             -1.2290   YZ=             -0.6975

 Normal termination of Gaussian 16 at Mon Oct 25 23:07:24 2021.
