 Gaussian 16, Revision C.01,
 Gaussian 16:  ES64L-G16RevC.01  3-Jul-2019

 ---------------------------------
 # opt=modredundant hf/aug-cc-pvdz
 ---------------------------------

 --------------
 pBTTT_-175.pdb
 --------------
 Symbolic Z-matrix:
 Charge =  0 Multiplicity = 1

 SCF Done:  E(RHF) =  -1613.75229694     A.U. after   18 cycles
 SCF Done:  E(RHF) =  -1613.79295336     A.U. after   16 cycles
 SCF Done:  E(RHF) =  -1613.80625322     A.U. after   15 cycles
 SCF Done:  E(RHF) =  -1613.80917920     A.U. after   17 cycles
 SCF Done:  E(RHF) =  -1613.81006885     A.U. after   14 cycles
 SCF Done:  E(RHF) =  -1613.81024818     A.U. after   14 cycles
 SCF Done:  E(RHF) =  -1613.81052767     A.U. after   15 cycles
 SCF Done:  E(RHF) =  -1613.81054010     A.U. after   12 cycles
 SCF Done:  E(RHF) =  -1613.81054961     A.U. after   12 cycles
 SCF Done:  E(RHF) =  -1613.81056289     A.U. after   11 cycles
 SCF Done:  E(RHF) =  -1613.81056706     A.U. after   11 cycles
 SCF Done:  E(RHF) =  -1613.81056952     A.U. after   10 cycles
 SCF Done:  E(RHF) =  -1613.81056989     A.U. after   10 cycles
 SCF Done:  E(RHF) =  -1613.81057005     A.U. after    9 cycles
 Optimization completed.
    -- Stationary point found.

                         Standard orientation:
 ---------------------------------------------------------------------
 Center     Atomic      Atomic             Coordinates (Angstroms)
 Number     Number       Type             X           Y           Z
 ---------------------------------------------------------------------
      1          6           0        3.965737    0.774992   -0.009271
      2          6           0        2.576377    1.144622    0.045990
      3          6           0        1.755632    0.054124    0.014737
      4          6           0        2.156836    2.589070    0.141945
      5          6           0        4.173376   -0.554832   -0.083244
      6          1           0        4.764650    1.500286    0.010639
      7         16           0        2.687254   -1.422799   -0.093555
      8          1           0        5.112469   -1.078644   -0.131221
      9          6           0        0.287435   -0.011086    0.025093
     10         16           0       -0.518591   -1.579847    0.110736
     11          6           0       -2.079757   -0.827478    0.047371
     12          6           0       -1.963056    0.527309   -0.033186
     13          6           0       -0.613826    1.003552   -0.050445
     14          1           0       -0.353355    2.041473   -0.128475
     15         16           0       -3.525182    1.286312   -0.096049
     16          6           0       -4.305025   -0.272265   -0.009797
     17          6           0       -3.433720   -1.300370    0.062051
     18          1           0       -5.380183   -0.329821   -0.018267
     19          1           0       -3.728480   -2.335291    0.121550
     20          1           0        3.030888    3.221674    0.281452
     21          1           0        1.486770    2.755315    0.985077
     22          1           0        1.651471    2.920518   -0.766339
 ---------------------------------------------------------------------

 The electronic state is 1-A.
 Alpha  occ. eigenvalues --  -91.99042 -91.98915 -91.98569 -11.29431 -11.28132
 Alpha  occ. eigenvalues --  -11.27751 -11.27277 -11.27188 -11.27126 -11.25826
 Alpha  occ. eigenvalues --  -11.25714 -11.25619 -11.24514 -11.24272  -8.99223
 Alpha  occ. eigenvalues --   -8.99121  -8.98835  -6.67390  -6.67313  -6.67289
 Alpha  occ. eigenvalues --   -6.67207  -6.67107  -6.67004  -6.66994  -6.66911
 Alpha  occ. eigenvalues --   -6.66718  -1.21819  -1.18802  -1.12874  -1.04431
 Alpha  occ. eigenvalues --   -1.02447  -1.02027  -0.95938  -0.94500  -0.92392
 Alpha  occ. eigenvalues --   -0.82382  -0.77407  -0.77091  -0.72707  -0.70343
 Alpha  occ. eigenvalues --   -0.67529  -0.66932  -0.60619  -0.59543  -0.59124
 Alpha  occ. eigenvalues --   -0.56707  -0.56405  -0.55031  -0.54269  -0.52432
 Alpha  occ. eigenvalues --   -0.52206  -0.51463  -0.49370  -0.47467  -0.47067
 Alpha  occ. eigenvalues --   -0.45572  -0.39362  -0.35749  -0.34468  -0.32213
 Alpha  occ. eigenvalues --   -0.27721
 Alpha virt. eigenvalues --    0.03312   0.03528   0.03932   0.04918   0.05037
 Alpha virt. eigenvalues --    0.05697   0.06337   0.06659   0.07999   0.08240
 Alpha virt. eigenvalues --    0.09561   0.09752   0.10257   0.10822   0.11339

 Mulliken charges:
               1
     1  C    0.616066
     2  C   -0.316750
     3  C   -0.065653
     4  C    0.569846
     5  C   -0.254088
     6  H   -0.543819
     7  S    0.499353
     8  H   -0.390995
     9  C   -0.430923
    10  S    0.570541
    11  C   -0.556126
    12  C   -0.173052
    13  C    0.979120
    14  H   -0.726866
    15  S    0.499614
    16  C   -0.173344
    17  C    0.463167
    18  H   -0.389035
    19  H   -0.338041
    20  H   -0.317930
    21  H    0.236935
    22  H    0.241979
 Sum of Mulliken charges =  -0.00000

 Dipole moment (field-independent basis, Debye):
    X=              0.5086    Y=              1.1492    Z=              0.0177  Tot=              1.2569
 Quadrupole moment (field-independent basis, Debye-Ang):
   XX=            -86.4677   YY=            -98.0571   ZZ=           -111.7344
   XY=              7.1777   XZ=             -0.2550   YZ=             -0.0766

 Normal termination of Gaussian 16 at Mon Oct 25 22:07:42 2021.
