 Gaussian 16, Revision C.01,
 Gaussian 16:  ES64L-G16RevC.01  3-Jul-2019

 ---------------------------------
 # opt=modredundant hf/aug-cc-pvdz
 ---------------------------------

 -------------
 pBTTT_115.pdb
 -------------
 Symbolic Z-matrix:
 Charge =  0 Multiplicity = 1

 SCF Done:  E(RHF) =  -1613.75158759     A.U. after   18 cycles
 SCF Done:  E(RHF) =  -1613.79444941     A.U. after   15 cycles
 SCF Done:  E(RHF) =  -1613.80922832     A.U. after   15 cycles
 SCF Done:  E(RHF) =  -1613.81214171     A.U. after   16 cycles
 SCF Done:  E(RHF) =  -1613.81254335     A.U. after   14 cycles
 SCF Done:  E(RHF) =  -1613.81332509     A.U. after   14 cycles
 SCF Done:  E(RHF) =  -1613.81338869     A.U. after   13 cycles
 SCF Done:  E(RHF) =  -1613.81351681     A.U. after   13 cycles
 SCF Done:  E(RHF) =  -1613.81367812     A.U. after   13 cycles
 SCF Done:  E(RHF) =  -1613.81383407     A.U. after   14 cycles
 SCF Done:  E(RHF) =  -1613.81410627     A.U. after   13 cycles
 SCF Done:  E(RHF) =  -1613.81441471     A.U. after   14 cycles
 SCF Done:  E(RHF) =  -1613.81458158     A.U. after   13 cycles
 SCF Done:  E(RHF) =  -1613.81468890     A.U. after   13 cycles
 SCF Done:  E(RHF) =  -1613.81469776     A.U. after   11 cycles
 SCF Done:  E(RHF) =  -1613.81469946     A.U. after   10 cycles
 SCF Done:  E(RHF) =  -1613.81469993     A.U. after    9 cycles
 Optimization completed.
    -- Stationary point found.

                         Standard orientation:
 ---------------------------------------------------------------------
 Center     Atomic      Atomic             Coordinates (Angstroms)
 Number     Number       Type             X           Y           Z
 ---------------------------------------------------------------------
      1          6           0       -3.964060    0.702372    0.154901
      2          6           0       -2.573095    0.994727    0.406515
      3          6           0       -1.758113    0.022441   -0.074152
      4          6           0       -2.137654    2.236597    1.137958
      5          6           0       -4.159424   -0.466203   -0.486936
      6          1           0       -4.768306    1.354040    0.461888
      7         16           0       -2.668518   -1.266261   -0.828007
      8          1           0       -5.096541   -0.908074   -0.780652
      9          6           0       -0.286739   -0.040929   -0.026844
     10         16           0        0.525287   -1.294527    0.903634
     11          6           0        2.078299   -0.669006    0.442936
     12          6           0        1.947845    0.425347   -0.360946
     13          6           0        0.588973    0.787133   -0.639267
     14          1           0        0.282819    1.606792   -1.268355
     15         16           0        3.501046    1.051221   -0.824560
     16          6           0        4.298150   -0.199635    0.093544
     17          6           0        3.439489   -1.037757    0.710486
     18          1           0        5.374036   -0.236128    0.119103
     19          1           0        3.746745   -1.870926    1.321187
     20          1           0       -2.702680    2.345621    2.064229
     21          1           0       -2.322896    3.126043    0.533159
     22          1           0       -1.080231    2.205172    1.383219
 ---------------------------------------------------------------------

 The electronic state is 1-A.
 Alpha  occ. eigenvalues --  -91.99067 -91.98958 -91.98347 -11.28830 -11.27800
 Alpha  occ. eigenvalues --  -11.27545 -11.27307 -11.27163 -11.27156 -11.25814
 Alpha  occ. eigenvalues --  -11.25787 -11.25568 -11.24319 -11.23664  -8.99247
 Alpha  occ. eigenvalues --   -8.99115  -8.98570  -6.67414  -6.67336  -6.67279
 Alpha  occ. eigenvalues --   -6.67197  -6.67130  -6.66990  -6.66735  -6.66643
 Alpha  occ. eigenvalues --   -6.66451  -1.21752  -1.18571  -1.12865  -1.03989
 Alpha  occ. eigenvalues --   -1.02452  -1.01671  -0.95849  -0.94595  -0.91876
 Alpha  occ. eigenvalues --   -0.82142  -0.77353  -0.76517  -0.72740  -0.69971
 Alpha  occ. eigenvalues --   -0.67374  -0.66867  -0.60739  -0.59071  -0.58854
 Alpha  occ. eigenvalues --   -0.56695  -0.56337  -0.54654  -0.53880  -0.52539
 Alpha  occ. eigenvalues --   -0.51794  -0.50989  -0.49480  -0.47358  -0.46294
 Alpha  occ. eigenvalues --   -0.46142  -0.38873  -0.34285  -0.33785  -0.32187
 Alpha  occ. eigenvalues --   -0.29827
 Alpha virt. eigenvalues --    0.03394   0.03513   0.04106   0.04732   0.04930
 Alpha virt. eigenvalues --    0.05533   0.06501   0.07348   0.08214   0.08494
 Alpha virt. eigenvalues --    0.08804   0.09121   0.10282   0.10611   0.10812

 Mulliken charges:
               1
     1  C    0.694230
     2  C   -1.139353
     3  C    0.891695
     4  C    0.499465
     5  C   -0.307498
     6  H   -0.481115
     7  S    0.334229
     8  H   -0.359620
     9  C    0.371052
    10  S    0.385703
    11  C   -0.773417
    12  C   -0.353396
    13  C    0.216350
    14  H   -0.478120
    15  S    0.624973
    16  C   -0.054011
    17  C    0.635734
    18  H   -0.379093
    19  H   -0.329356
    20  H    0.008256
    21  H    0.100796
    22  H   -0.107505
 Sum of Mulliken charges =  -0.00000

 Dipole moment (field-independent basis, Debye):
    X=             -0.3702    Y=              1.1011    Z=              0.5932  Tot=              1.3044
 Quadrupole moment (field-independent basis, Debye-Ang):
   XX=            -86.8720   YY=           -102.3226   ZZ=           -107.6356
   XY=             -6.0452   XZ=              1.9245   YZ=             -1.2014

 Normal termination of Gaussian 16 at Tue Oct 26 01:17:18 2021.
