 Gaussian 16, Revision C.01,
 Gaussian 16:  ES64L-G16RevC.01  3-Jul-2019

 ---------------------------------
 # opt=modredundant hf/aug-cc-pvdz
 ---------------------------------

 -----------
 pBTTT_5.pdb
 -----------
 Symbolic Z-matrix:
 Charge =  0 Multiplicity = 1

 SCF Done:  E(RHF) =  -1613.75311324     A.U. after   18 cycles
 SCF Done:  E(RHF) =  -1613.79414247     A.U. after   16 cycles
 SCF Done:  E(RHF) =  -1613.80767728     A.U. after   16 cycles
 SCF Done:  E(RHF) =  -1613.81049177     A.U. after   17 cycles
 SCF Done:  E(RHF) =  -1613.81127531     A.U. after   15 cycles
 SCF Done:  E(RHF) =  -1613.81160646     A.U. after   15 cycles
 SCF Done:  E(RHF) =  -1613.81181558     A.U. after   14 cycles
 SCF Done:  E(RHF) =  -1613.81180540     A.U. after   13 cycles
 SCF Done:  E(RHF) =  -1613.81183504     A.U. after   11 cycles
 SCF Done:  E(RHF) =  -1613.81183875     A.U. after   11 cycles
 SCF Done:  E(RHF) =  -1613.81184228     A.U. after   10 cycles
 SCF Done:  E(RHF) =  -1613.81184400     A.U. after   10 cycles
 SCF Done:  E(RHF) =  -1613.81184457     A.U. after   10 cycles
 SCF Done:  E(RHF) =  -1613.81184472     A.U. after    9 cycles
 Optimization completed.
    -- Stationary point found.

                         Standard orientation:
 ---------------------------------------------------------------------
 Center     Atomic      Atomic             Coordinates (Angstroms)
 Number     Number       Type             X           Y           Z
 ---------------------------------------------------------------------
      1          6           0       -4.042397    0.257445   -0.025898
      2          6           0       -2.720820    0.833432   -0.046651
      3          6           0       -1.748761   -0.121603   -0.007658
      4          6           0       -2.530404    2.329840   -0.108439
      5          6           0       -4.050501   -1.087752    0.029750
      6          1           0       -4.939845    0.856099   -0.054246
      7         16           0       -2.449688   -1.725396    0.062812
      8          1           0       -4.901956   -1.746032    0.053143
      9          6           0       -0.284429   -0.005345   -0.005195
     10         16           0        0.540995    1.552719    0.072453
     11          6           0        2.091257    0.776532    0.039969
     12          6           0        1.958444   -0.578058   -0.027372
     13          6           0        0.603513   -1.031586   -0.054672
     14          1           0        0.315639   -2.068082   -0.110631
     15         16           0        3.510727   -1.357392   -0.064598
     16          6           0        4.309802    0.192194    0.013061
     17          6           0        3.451250    1.232118    0.063391
     18          1           0        5.385636    0.235787    0.016968
     19          1           0        3.759044    2.263745    0.114823
     20          1           0       -3.497518    2.819724   -0.200226
     21          1           0       -1.925349    2.625000   -0.964292
     22          1           0       -2.049916    2.711556    0.792064
 ---------------------------------------------------------------------

 The electronic state is 1-A.
 Alpha  occ. eigenvalues --  -91.99126 -91.99004 -91.98476 -11.29359 -11.28100
 Alpha  occ. eigenvalues --  -11.27717 -11.27289 -11.27225 -11.27090 -11.25828
 Alpha  occ. eigenvalues --  -11.25748 -11.25494 -11.24481 -11.23875  -8.99311
 Alpha  occ. eigenvalues --   -8.99185  -8.98741  -6.67477  -6.67399  -6.67351
 Alpha  occ. eigenvalues --   -6.67274  -6.67187  -6.67067  -6.66914  -6.66820
 Alpha  occ. eigenvalues --   -6.66626  -1.21837  -1.18734  -1.12895  -1.04185
 Alpha  occ. eigenvalues --   -1.02839  -1.01793  -0.95550  -0.94760  -0.92262
 Alpha  occ. eigenvalues --   -0.82355  -0.78034  -0.76694  -0.71593  -0.70507
 Alpha  occ. eigenvalues --   -0.67685  -0.66988  -0.60480  -0.59327  -0.59100
 Alpha  occ. eigenvalues --   -0.56786  -0.56609  -0.55020  -0.53963  -0.52203
 Alpha  occ. eigenvalues --   -0.52052  -0.51700  -0.49650  -0.47155  -0.46838
 Alpha  occ. eigenvalues --   -0.45776  -0.39425  -0.35709  -0.34415  -0.32346
 Alpha  occ. eigenvalues --   -0.27656
 Alpha virt. eigenvalues --    0.03404   0.03457   0.03991   0.04756   0.05027
 Alpha virt. eigenvalues --    0.05942   0.06084   0.06486   0.07422   0.08450
 Alpha virt. eigenvalues --    0.09656   0.10023   0.10334   0.10723   0.11049

 Mulliken charges:
               1
     1  C    0.524910
     2  C   -0.659101
     3  C    0.477954
     4  C    0.642807
     5  C   -0.326777
     6  H   -0.539352
     7  S    0.612067
     8  H   -0.392240
     9  C   -0.096358
    10  S    0.539431
    11  C   -0.829399
    12  C   -0.131794
    13  C    0.476428
    14  H   -0.546986
    15  S    0.495241
    16  C   -0.169044
    17  C    0.512194
    18  H   -0.394104
    19  H   -0.331383
    20  H   -0.239112
    21  H    0.186985
    22  H    0.187633
 Sum of Mulliken charges =  -0.00000

 Dipole moment (field-independent basis, Debye):
    X=             -0.6648    Y=              1.2626    Z=             -0.0559  Tot=              1.4280
 Quadrupole moment (field-independent basis, Debye-Ang):
   XX=            -85.8447   YY=            -98.5137   ZZ=           -111.7553
   XY=              2.3617   XZ=              0.3501   YZ=              0.1080

 Normal termination of Gaussian 16 at Tue Oct 26 01:00:20 2021.
