 Gaussian 16, Revision C.01,
 Gaussian 16:  ES64L-G16RevC.01  3-Jul-2019

 ---------------------------------
 # opt=modredundant hf/aug-cc-pvdz
 ---------------------------------

 --------------
 pBTTT_-150.pdb
 --------------
 Symbolic Z-matrix:
 Charge =  0 Multiplicity = 1

 SCF Done:  E(RHF) =  -1613.75163454     A.U. after   18 cycles
 SCF Done:  E(RHF) =  -1613.79314877     A.U. after   15 cycles
 SCF Done:  E(RHF) =  -1613.80755476     A.U. after   15 cycles
 SCF Done:  E(RHF) =  -1613.81072720     A.U. after   17 cycles
 SCF Done:  E(RHF) =  -1613.81159506     A.U. after   14 cycles
 SCF Done:  E(RHF) =  -1613.81255485     A.U. after   14 cycles
 SCF Done:  E(RHF) =  -1613.81274212     A.U. after   13 cycles
 SCF Done:  E(RHF) =  -1613.81280818     A.U. after   14 cycles
 SCF Done:  E(RHF) =  -1613.81310828     A.U. after   13 cycles
 SCF Done:  E(RHF) =  -1613.81323157     A.U. after   14 cycles
 SCF Done:  E(RHF) =  -1613.81325627     A.U. after   12 cycles
 SCF Done:  E(RHF) =  -1613.81326137     A.U. after   11 cycles
 SCF Done:  E(RHF) =  -1613.81326266     A.U. after   11 cycles
 SCF Done:  E(RHF) =  -1613.81326327     A.U. after   10 cycles
 Optimization completed.
    -- Stationary point found.

                         Standard orientation:
 ---------------------------------------------------------------------
 Center     Atomic      Atomic             Coordinates (Angstroms)
 Number     Number       Type             X           Y           Z
 ---------------------------------------------------------------------
      1          6           0        3.960278    0.761659    0.029055
      2          6           0        2.573864    1.099213    0.229735
      3          6           0        1.755833    0.034025    0.008934
      4          6           0        2.152031    2.477818    0.668432
      5          6           0        4.158304   -0.521470   -0.332523
      6          1           0        4.763006    1.469791    0.169227
      7         16           0        2.669713   -1.381693   -0.460937
      8          1           0        5.094026   -1.016766   -0.528129
      9          6           0        0.288924   -0.023086    0.045623
     10         16           0       -0.529250   -1.513875    0.508160
     11          6           0       -2.080763   -0.786237    0.232722
     12          6           0       -1.948374    0.507166   -0.177809
     13          6           0       -0.591588    0.948255   -0.298999
     14          1           0       -0.298316    1.920185   -0.655725
     15         16           0       -3.500599    1.238406   -0.451933
     16          6           0       -4.299093   -0.244523    0.003656
     17          6           0       -3.440903   -1.229481    0.341523
     18          1           0       -5.374652   -0.293990   -0.007389
     19          1           0       -3.748568   -2.215305    0.649785
     20          1           0        2.926663    2.924594    1.290315
     21          1           0        1.229667    2.448546    1.243344
     22          1           0        1.999263    3.137505   -0.188161
 ---------------------------------------------------------------------

 The electronic state is 1-A.
 Alpha  occ. eigenvalues --  -91.99067 -91.98968 -91.98488 -11.29139 -11.27871
 Alpha  occ. eigenvalues --  -11.27771 -11.27322 -11.27166 -11.27158 -11.25828
 Alpha  occ. eigenvalues --  -11.25722 -11.25604 -11.24447 -11.23981  -8.99247
 Alpha  occ. eigenvalues --   -8.99153  -8.98731  -6.67415  -6.67337  -6.67318
 Alpha  occ. eigenvalues --   -6.67237  -6.67130  -6.67027  -6.66898  -6.66805
 Alpha  occ. eigenvalues --   -6.66612  -1.21819  -1.18705  -1.12897  -1.04234
 Alpha  occ. eigenvalues --   -1.02444  -1.01909  -0.95911  -0.94556  -0.92144
 Alpha  occ. eigenvalues --   -0.82309  -0.77371  -0.76863  -0.72743  -0.70124
 Alpha  occ. eigenvalues --   -0.67464  -0.66907  -0.60714  -0.59263  -0.59023
 Alpha  occ. eigenvalues --   -0.56714  -0.56343  -0.54749  -0.54173  -0.52509
 Alpha  occ. eigenvalues --   -0.52046  -0.51254  -0.49444  -0.47382  -0.46776
 Alpha  occ. eigenvalues --   -0.45943  -0.39161  -0.35264  -0.34252  -0.32300
 Alpha  occ. eigenvalues --   -0.28342
 Alpha virt. eigenvalues --    0.03372   0.03528   0.04024   0.04914   0.04965
 Alpha virt. eigenvalues --    0.05468   0.06771   0.06926   0.07770   0.08377
 Alpha virt. eigenvalues --    0.08747   0.09885   0.10022   0.10805   0.10952

 Mulliken charges:
               1
     1  C    0.500446
     2  C   -0.603228
     3  C    0.481013
     4  C    0.500594
     5  C   -0.276264
     6  H   -0.493229
     7  S    0.459300
     8  H   -0.365784
     9  C    0.077770
    10  S    0.444224
    11  C   -0.676409
    12  C   -0.354304
    13  C    0.462846
    14  H   -0.517138
    15  S    0.572318
    16  C   -0.089928
    17  C    0.534324
    18  H   -0.384613
    19  H   -0.328874
    20  H   -0.167536
    21  H    0.067584
    22  H    0.156888
 Sum of Mulliken charges =  -0.00000

 Dipole moment (field-independent basis, Debye):
    X=              0.4265    Y=              1.1302    Z=              0.2291  Tot=              1.2296
 Quadrupole moment (field-independent basis, Debye-Ang):
   XX=            -86.6524   YY=            -99.4077   ZZ=           -110.4996
   XY=              6.9478   XZ=             -1.1206   YZ=             -0.5865

 Normal termination of Gaussian 16 at Mon Oct 25 22:47:37 2021.
