 Gaussian 16, Revision C.01,
 Gaussian 16:  ES64L-G16RevC.01  3-Jul-2019

 ---------------------------------
 # opt=modredundant hf/aug-cc-pvdz
 ---------------------------------

 ------------
 pBTTT_10.pdb
 ------------
 Symbolic Z-matrix:
 Charge =  0 Multiplicity = 1

 SCF Done:  E(RHF) =  -1613.75297668     A.U. after   18 cycles
 SCF Done:  E(RHF) =  -1613.79405842     A.U. after   16 cycles
 SCF Done:  E(RHF) =  -1613.80769104     A.U. after   16 cycles
 SCF Done:  E(RHF) =  -1613.81053127     A.U. after   17 cycles
 SCF Done:  E(RHF) =  -1613.81131750     A.U. after   15 cycles
 SCF Done:  E(RHF) =  -1613.81171156     A.U. after   15 cycles
 SCF Done:  E(RHF) =  -1613.81190740     A.U. after   14 cycles
 SCF Done:  E(RHF) =  -1613.81190187     A.U. after   13 cycles
 SCF Done:  E(RHF) =  -1613.81193670     A.U. after   12 cycles
 SCF Done:  E(RHF) =  -1613.81194808     A.U. after   11 cycles
 SCF Done:  E(RHF) =  -1613.81195593     A.U. after   11 cycles
 SCF Done:  E(RHF) =  -1613.81195902     A.U. after   11 cycles
 SCF Done:  E(RHF) =  -1613.81195971     A.U. after   10 cycles
 SCF Done:  E(RHF) =  -1613.81195994     A.U. after    9 cycles
 Optimization completed.
    -- Stationary point found.

                         Standard orientation:
 ---------------------------------------------------------------------
 Center     Atomic      Atomic             Coordinates (Angstroms)
 Number     Number       Type             X           Y           Z
 ---------------------------------------------------------------------
      1          6           0       -4.041857    0.257069   -0.051480
      2          6           0       -2.720138    0.831553   -0.093248
      3          6           0       -1.748722   -0.121469   -0.015339
      4          6           0       -2.528533    2.323899   -0.217732
      5          6           0       -4.050236   -1.084830    0.059396
      6          1           0       -4.939226    0.853899   -0.108011
      7         16           0       -2.449616   -1.720425    0.125255
      8          1           0       -4.901985   -1.741512    0.106151
      9          6           0       -0.284333   -0.005461   -0.009773
     10         16           0        0.539914    1.546888    0.145859
     11          6           0        2.090629    0.773417    0.079681
     12          6           0        1.958315   -0.576277   -0.054810
     13          6           0        0.603445   -1.028053   -0.109041
     14          1           0        0.314910   -2.059882   -0.220814
     15         16           0        3.510902   -1.352319   -0.129294
     16          6           0        4.309373    0.191694    0.025749
     17          6           0        3.450482    1.227661    0.126479
     18          1           0        5.385192    0.235248    0.033474
     19          1           0        3.757928    2.255546    0.229254
     20          1           0       -3.487736    2.803331   -0.402083
     21          1           0       -1.864255    2.579134   -1.041350
     22          1           0       -2.114569    2.752724    0.694967
 ---------------------------------------------------------------------

 The electronic state is 1-A.
 Alpha  occ. eigenvalues --  -91.99122 -91.99006 -91.98475 -11.29339 -11.28077
 Alpha  occ. eigenvalues --  -11.27722 -11.27290 -11.27213 -11.27101 -11.25830
 Alpha  occ. eigenvalues --  -11.25732 -11.25503 -11.24474 -11.23862  -8.99308
 Alpha  occ. eigenvalues --   -8.99187  -8.98738  -6.67474  -6.67395  -6.67354
 Alpha  occ. eigenvalues --   -6.67276  -6.67184  -6.67070  -6.66910  -6.66817
 Alpha  occ. eigenvalues --   -6.66622  -1.21837  -1.18727  -1.12896  -1.04167
 Alpha  occ. eigenvalues --   -1.02832  -1.01791  -0.95552  -0.94762  -0.92243
 Alpha  occ. eigenvalues --   -0.82347  -0.78016  -0.76690  -0.71614  -0.70492
 Alpha  occ. eigenvalues --   -0.67669  -0.66984  -0.60483  -0.59309  -0.59089
 Alpha  occ. eigenvalues --   -0.56790  -0.56600  -0.55005  -0.53952  -0.52263
 Alpha  occ. eigenvalues --   -0.51974  -0.51695  -0.49653  -0.47153  -0.46825
 Alpha  occ. eigenvalues --   -0.45801  -0.39402  -0.35673  -0.34399  -0.32343
 Alpha  occ. eigenvalues --   -0.27706
 Alpha virt. eigenvalues --    0.03411   0.03460   0.04003   0.04761   0.05024
 Alpha virt. eigenvalues --    0.05913   0.06091   0.06501   0.07441   0.08464
 Alpha virt. eigenvalues --    0.09654   0.10019   0.10345   0.10653   0.11007

 Mulliken charges:
               1
     1  C    0.516589
     2  C   -0.639684
     3  C    0.519938
     4  C    0.619939
     5  C   -0.335937
     6  H   -0.534570
     7  S    0.571187
     8  H   -0.388351
     9  C   -0.076699
    10  S    0.545365
    11  C   -0.825699
    12  C   -0.149119
    13  C    0.467761
    14  H   -0.545267
    15  S    0.504280
    16  C   -0.162735
    17  C    0.504820
    18  H   -0.391894
    19  H   -0.330740
    20  H   -0.236284
    21  H    0.182472
    22  H    0.184629
 Sum of Mulliken charges =  -0.00000

 Dipole moment (field-independent basis, Debye):
    X=             -0.6528    Y=              1.2572    Z=             -0.1117  Tot=              1.4210
 Quadrupole moment (field-independent basis, Debye-Ang):
   XX=            -85.8800   YY=            -98.6064   ZZ=           -111.6515
   XY=              2.3679   XZ=              0.6986   YZ=              0.2166

 Normal termination of Gaussian 16 at Tue Oct 26 01:02:00 2021.
