 Gaussian 16, Revision C.01,
 Gaussian 16:  ES64L-G16RevC.01  3-Jul-2019

 ---------------------------------
 # opt=modredundant hf/aug-cc-pvdz
 ---------------------------------

 --------------
 pBTTT_-165.pdb
 --------------
 Symbolic Z-matrix:
 Charge =  0 Multiplicity = 1

 SCF Done:  E(RHF) =  -1613.75198772     A.U. after   18 cycles
 SCF Done:  E(RHF) =  -1613.79288343     A.U. after   16 cycles
 SCF Done:  E(RHF) =  -1613.80654244     A.U. after   15 cycles
 SCF Done:  E(RHF) =  -1613.80965621     A.U. after   17 cycles
 SCF Done:  E(RHF) =  -1613.81062880     A.U. after   14 cycles
 SCF Done:  E(RHF) =  -1613.81109994     A.U. after   14 cycles
 SCF Done:  E(RHF) =  -1613.81135444     A.U. after   14 cycles
 SCF Done:  E(RHF) =  -1613.81141231     A.U. after   13 cycles
 SCF Done:  E(RHF) =  -1613.81142450     A.U. after   14 cycles
 SCF Done:  E(RHF) =  -1613.81149237     A.U. after   12 cycles
 SCF Done:  E(RHF) =  -1613.81150845     A.U. after   11 cycles
 SCF Done:  E(RHF) =  -1613.81151114     A.U. after   11 cycles
 SCF Done:  E(RHF) =  -1613.81151269     A.U. after   11 cycles
 SCF Done:  E(RHF) =  -1613.81151314     A.U. after   10 cycles
 Optimization completed.
    -- Stationary point found.

                         Standard orientation:
 ---------------------------------------------------------------------
 Center     Atomic      Atomic             Coordinates (Angstroms)
 Number     Number       Type             X           Y           Z
 ---------------------------------------------------------------------
      1          6           0        3.962614    0.771601   -0.013215
      2          6           0        2.575943    1.130442    0.129650
      3          6           0        1.755746    0.045603    0.029603
      4          6           0        2.157813    2.554357    0.392871
      5          6           0        4.164986   -0.544864   -0.220121
      6          1           0        4.763325    1.492681    0.049819
      7         16           0        2.677853   -1.412375   -0.262333
      8          1           0        5.101699   -1.059770   -0.347634
      9          6           0        0.288329   -0.014784    0.057035
     10         16           0       -0.523904   -1.561564    0.304175
     11          6           0       -2.080277   -0.814970    0.132442
     12          6           0       -1.956199    0.522819   -0.095236
     13          6           0       -0.603805    0.987860   -0.149917
     14          1           0       -0.329536    2.004377   -0.363042
     15         16           0       -3.513495    1.274978   -0.265268
     16          6           0       -4.301976   -0.261960   -0.018935
     17          6           0       -3.436864   -1.278527    0.179439
     18          1           0       -5.377160   -0.316727   -0.037492
     19          1           0       -3.737624   -2.299547    0.348461
     20          1           0        3.002823    3.126245    0.771848
     21          1           0        1.358753    2.605417    1.130241
     22          1           0        1.812594    3.045251   -0.519092
 ---------------------------------------------------------------------

 The electronic state is 1-A.
 Alpha  occ. eigenvalues --  -91.99054 -91.98938 -91.98541 -11.29327 -11.28039
 Alpha  occ. eigenvalues --  -11.27760 -11.27300 -11.27173 -11.27145 -11.25830
 Alpha  occ. eigenvalues --  -11.25664 -11.25663 -11.24492 -11.24169  -8.99235
 Alpha  occ. eigenvalues --   -8.99137  -8.98797  -6.67402  -6.67325  -6.67304
 Alpha  occ. eigenvalues --   -6.67222  -6.67118  -6.67010  -6.66966  -6.66873
 Alpha  occ. eigenvalues --   -6.66680  -1.21825  -1.18768  -1.12887  -1.04362
 Alpha  occ. eigenvalues --   -1.02447  -1.01990  -0.95928  -0.94523  -0.92302
 Alpha  occ. eigenvalues --   -0.82360  -0.77395  -0.77014  -0.72718  -0.70261
 Alpha  occ. eigenvalues --   -0.67505  -0.66926  -0.60667  -0.59427  -0.59094
 Alpha  occ. eigenvalues --   -0.56716  -0.56372  -0.54917  -0.54243  -0.52463
 Alpha  occ. eigenvalues --   -0.52153  -0.51399  -0.49399  -0.47435  -0.46969
 Alpha  occ. eigenvalues --   -0.45715  -0.39299  -0.35608  -0.34384  -0.32257
 Alpha  occ. eigenvalues --   -0.27904
 Alpha virt. eigenvalues --    0.03340   0.03531   0.03973   0.04927   0.05032
 Alpha virt. eigenvalues --    0.05537   0.06502   0.06762   0.08070   0.08230
 Alpha virt. eigenvalues --    0.09019   0.09808   0.10294   0.10802   0.10875

 Mulliken charges:
               1
     1  C    0.512809
     2  C   -0.361806
     3  C    0.171206
     4  C    0.518659
     5  C   -0.281198
     6  H   -0.517785
     7  S    0.501869
     8  H   -0.379820
     9  C   -0.159031
    10  S    0.492303
    11  C   -0.597843
    12  C   -0.307743
    13  C    0.740486
    14  H   -0.630956
    15  S    0.530425
    16  C   -0.127052
    17  C    0.476581
    18  H   -0.386734
    19  H   -0.332982
    20  H   -0.264445
    21  H    0.185723
    22  H    0.217334
 Sum of Mulliken charges =  -0.00000

 Dipole moment (field-independent basis, Debye):
    X=              0.4737    Y=              1.1416    Z=              0.0758  Tot=              1.2383
 Quadrupole moment (field-independent basis, Debye-Ang):
   XX=            -86.5382   YY=            -98.4896   ZZ=           -111.3506
   XY=              7.1325   XZ=             -0.6863   YZ=             -0.2539

 1\1\GINC-CX3-12-15\FOpt\RHF\Aug-CC-pVDZ\C11H8S3\NS5018\25-Oct-2021\0\\
 # opt=modredundant hf/aug-cc-pvdz\\pBTTT_-165.pdb\\0,1\C,-4.1539316917
 ,-1.3629628346,0.0129528181\C,-2.9049457726,-0.9931306043,-0.599657678
 9\C,-2.0744604943,-2.0641371763,-0.7508044761\C,-2.6324723536,0.425512
 5911,-1.0296151254\C,-4.2447270304,-2.6736709703,0.3140252102\H,-4.945
 3160089,-0.6539455461,0.2028849638\S,-2.8108846439,-3.521714575,-0.122
 8248364\H,-5.0717768016,-3.1947335579,0.7649157837\C,-0.701033653,-2.1
 082696121,-1.26990243\S,0.0155615069,-3.653130452,-1.7316672735\C,1.52

 Normal termination of Gaussian 16 at Mon Oct 25 22:17:46 2021.
