 Gaussian 16, Revision C.01,
 Gaussian 16:  ES64L-G16RevC.01  3-Jul-2019

 ---------------------------------
 # opt=modredundant hf/aug-cc-pvdz
 ---------------------------------

 ------------
 pBTTT_45.pdb
 ------------
 Symbolic Z-matrix:
 Charge =  0 Multiplicity = 1

 SCF Done:  E(RHF) =  -1613.75211490     A.U. after   17 cycles
 SCF Done:  E(RHF) =  -1613.79426837     A.U. after   16 cycles
 SCF Done:  E(RHF) =  -1613.80881989     A.U. after   16 cycles
 SCF Done:  E(RHF) =  -1613.81175897     A.U. after   16 cycles
 SCF Done:  E(RHF) =  -1613.81231357     A.U. after   15 cycles
 SCF Done:  E(RHF) =  -1613.81317266     A.U. after   13 cycles
 SCF Done:  E(RHF) =  -1613.81332797     A.U. after   13 cycles
 SCF Done:  E(RHF) =  -1613.81343052     A.U. after   14 cycles
 SCF Done:  E(RHF) =  -1613.81359009     A.U. after   13 cycles
 SCF Done:  E(RHF) =  -1613.81372381     A.U. after   14 cycles
 SCF Done:  E(RHF) =  -1613.81390521     A.U. after   12 cycles
 SCF Done:  E(RHF) =  -1613.81406916     A.U. after   13 cycles
 SCF Done:  E(RHF) =  -1613.81408945     A.U. after   13 cycles
 SCF Done:  E(RHF) =  -1613.81409511     A.U. after   11 cycles
 SCF Done:  E(RHF) =  -1613.81409578     A.U. after   10 cycles
 Optimization completed.
    -- Stationary point found.

                         Standard orientation:
 ---------------------------------------------------------------------
 Center     Atomic      Atomic             Coordinates (Angstroms)
 Number     Number       Type             X           Y           Z
 ---------------------------------------------------------------------
      1          6           0        4.026633    0.283210    0.236351
      2          6           0        2.688380    0.797356    0.395589
      3          6           0        1.750401   -0.119944    0.041032
      4          6           0        2.438104    2.183490    0.933341
      5          6           0        4.070202   -0.981946   -0.225913
      6          1           0        4.908046    0.857289    0.479651
      7         16           0        2.487748   -1.607539   -0.507708
      8          1           0        4.941189   -1.585999   -0.415523
      9          6           0        0.282558   -0.018566    0.016021
     10         16           0       -0.523580    1.394122   -0.656085
     11          6           0       -2.081157    0.696721   -0.337105
     12          6           0       -1.957445   -0.536860    0.231394
     13          6           0       -0.602939   -0.952489    0.439004
     14          1           0       -0.307022   -1.886532    0.887716
     15         16           0       -3.514737   -1.235353    0.555816
     16          6           0       -4.303543    0.177902   -0.094969
     17          6           0       -3.439051    1.118919   -0.528665
     18          1           0       -5.379139    0.222961   -0.117712
     19          1           0       -3.740790    2.058352   -0.962289
     20          1           0        3.151188    2.406666    1.726642
     21          1           0        1.436339    2.285249    1.339649
     22          1           0        2.566450    2.935579    0.153017
 ---------------------------------------------------------------------

 The electronic state is 1-A.
 Alpha  occ. eigenvalues --  -91.99063 -91.99039 -91.98431 -11.29018 -11.27783
 Alpha  occ. eigenvalues --  -11.27738 -11.27315 -11.27171 -11.27111 -11.25834
 Alpha  occ. eigenvalues --  -11.25674 -11.25548 -11.24364 -11.23634  -8.99235
 Alpha  occ. eigenvalues --   -8.99221  -8.98663  -6.67400  -6.67388  -6.67320
 Alpha  occ. eigenvalues --   -6.67310  -6.67111  -6.67103  -6.66829  -6.66736
 Alpha  occ. eigenvalues --   -6.66544  -1.21800  -1.18621  -1.12894  -1.03940
 Alpha  occ. eigenvalues --   -1.02691  -1.01716  -0.95628  -0.94753  -0.91965
 Alpha  occ. eigenvalues --   -0.82204  -0.77718  -0.76592  -0.72015  -0.70248
 Alpha  occ. eigenvalues --   -0.67447  -0.66915  -0.60562  -0.59159  -0.58916
 Alpha  occ. eigenvalues --   -0.56782  -0.56407  -0.54828  -0.53812  -0.52508
 Alpha  occ. eigenvalues --   -0.51672  -0.51327  -0.49621  -0.47264  -0.46495
 Alpha  occ. eigenvalues --   -0.46037  -0.39045  -0.34850  -0.34131  -0.32299
 Alpha  occ. eigenvalues --   -0.28806
 Alpha virt. eigenvalues --    0.03447   0.03483   0.04129   0.04812   0.04840
 Alpha virt. eigenvalues --    0.05870   0.06006   0.07218   0.07606   0.08592
 Alpha virt. eigenvalues --    0.09097   0.09457   0.10396   0.10571   0.11194

 Mulliken charges:
               1
     1  C    0.530438
     2  C   -0.914358
     3  C    0.912208
     4  C    0.546107
     5  C   -0.290855
     6  H   -0.490643
     7  S    0.394717
     8  H   -0.359692
     9  C    0.078711
    10  S    0.361511
    11  C   -0.689122
    12  C   -0.254758
    13  C    0.310451
    14  H   -0.503898
    15  S    0.584872
    16  C   -0.104731
    17  C    0.561460
    18  H   -0.383842
    19  H   -0.327126
    20  H   -0.080321
    21  H   -0.007960
    22  H    0.126832
 Sum of Mulliken charges =  -0.00000

 Dipole moment (field-independent basis, Debye):
    X=              0.5073    Y=              1.1605    Z=              0.4609  Tot=              1.3478
 Quadrupole moment (field-independent basis, Debye-Ang):
   XX=            -86.3610   YY=           -100.5813   ZZ=           -109.5145
   XY=             -2.2906   XZ=              2.9070   YZ=             -0.9321

 Normal termination of Gaussian 16 at Tue Oct 26 01:28:04 2021.
