 Gaussian 16, Revision C.01,
 Gaussian 16:  ES64L-G16RevC.01  3-Jul-2019

 ---------------------------------
 # opt=modredundant hf/aug-cc-pvdz
 ---------------------------------

 -------------
 pBTTT_-55.pdb
 -------------
 Symbolic Z-matrix:
 Charge =  0 Multiplicity = 1

 SCF Done:  E(RHF) =  -1613.75259786     A.U. after   17 cycles
 SCF Done:  E(RHF) =  -1613.79504171     A.U. after   15 cycles
 SCF Done:  E(RHF) =  -1613.80953748     A.U. after   15 cycles
 SCF Done:  E(RHF) =  -1613.81231550     A.U. after   15 cycles
 SCF Done:  E(RHF) =  -1613.81273707     A.U. after   15 cycles
 SCF Done:  E(RHF) =  -1613.81354785     A.U. after   14 cycles
 SCF Done:  E(RHF) =  -1613.81364577     A.U. after   14 cycles
 SCF Done:  E(RHF) =  -1613.81375643     A.U. after   13 cycles
 SCF Done:  E(RHF) =  -1613.81388444     A.U. after   12 cycles
 SCF Done:  E(RHF) =  -1613.81412594     A.U. after   14 cycles
 SCF Done:  E(RHF) =  -1613.81431829     A.U. after   13 cycles
 SCF Done:  E(RHF) =  -1613.81442051     A.U. after   13 cycles
 SCF Done:  E(RHF) =  -1613.81455747     A.U. after   13 cycles
 SCF Done:  E(RHF) =  -1613.81457559     A.U. after   12 cycles
 SCF Done:  E(RHF) =  -1613.81457703     A.U. after   11 cycles
 SCF Done:  E(RHF) =  -1613.81457708     A.U. after    9 cycles
 Optimization completed.
    -- Stationary point found.

                         Standard orientation:
 ---------------------------------------------------------------------
 Center     Atomic      Atomic             Coordinates (Angstroms)
 Number     Number       Type             X           Y           Z
 ---------------------------------------------------------------------
      1          6           0       -4.018774    0.300326    0.298658
      2          6           0       -2.670531    0.783418    0.472776
      3          6           0       -1.752468   -0.117724    0.038500
      4          6           0       -2.383549    2.122244    1.101756
      5          6           0       -4.085653   -0.928976   -0.250031
      6          1           0       -4.888901    0.867497    0.593549
      7         16           0       -2.516055   -1.555775   -0.596826
      8          1           0       -4.967930   -1.506101   -0.469390
      9          6           0       -0.282641   -0.024846    0.010424
     10         16           0        0.520634    1.317600   -0.794637
     11          6           0        2.079101    0.657368   -0.406577
     12          6           0        1.956509   -0.516801    0.276780
     13          6           0        0.601495   -0.914070    0.519729
     14          1           0        0.303942   -1.803053    1.051380
     15         16           0        3.514296   -1.178667    0.668695
     16          6           0        4.302069    0.167398   -0.112364
     17          6           0        3.437057    1.061278   -0.635314
     18          1           0        5.377655    0.212076   -0.137209
     19          1           0        3.738232    1.955562   -1.156026
     20          1           0       -2.996677    2.253522    1.993625
     21          1           0       -2.623204    2.934625    0.413654
     22          1           0       -1.340821    2.217649    1.388679
 ---------------------------------------------------------------------

 The electronic state is 1-A.
 Alpha  occ. eigenvalues --  -91.99044 -91.99033 -91.98414 -11.28927 -11.27793
 Alpha  occ. eigenvalues --  -11.27632 -11.27315 -11.27170 -11.27107 -11.25828
 Alpha  occ. eigenvalues --  -11.25726 -11.25518 -11.24338 -11.23592  -8.99226
 Alpha  occ. eigenvalues --   -8.99197  -8.98638  -6.67393  -6.67361  -6.67315
 Alpha  occ. eigenvalues --   -6.67280  -6.67108  -6.67072  -6.66802  -6.66710
 Alpha  occ. eigenvalues --   -6.66518  -1.21778  -1.18595  -1.12883  -1.03905
 Alpha  occ. eigenvalues --   -1.02637  -1.01673  -0.95670  -0.94729  -0.91898
 Alpha  occ. eigenvalues --   -0.82157  -0.77631  -0.76543  -0.72159  -0.70179
 Alpha  occ. eigenvalues --   -0.67402  -0.66896  -0.60588  -0.59142  -0.58874
 Alpha  occ. eigenvalues --   -0.56761  -0.56361  -0.54789  -0.53792  -0.52521
 Alpha  occ. eigenvalues --   -0.51662  -0.51196  -0.49582  -0.47310  -0.46405
 Alpha  occ. eigenvalues --   -0.46042  -0.38956  -0.34515  -0.34015  -0.32280
 Alpha  occ. eigenvalues --   -0.29267
 Alpha virt. eigenvalues --    0.03443   0.03484   0.04154   0.04749   0.04862
 Alpha virt. eigenvalues --    0.05910   0.05953   0.07396   0.07728   0.08619
 Alpha virt. eigenvalues --    0.08920   0.09318   0.10356   0.10601   0.11249

 Mulliken charges:
               1
     1  C    0.555966
     2  C   -0.979598
     3  C    0.897248
     4  C    0.519383
     5  C   -0.269187
     6  H   -0.484791
     7  S    0.364987
     8  H   -0.358097
     9  C    0.180032
    10  S    0.336678
    11  C   -0.711060
    12  C   -0.264749
    13  C    0.274393
    14  H   -0.493556
    15  S    0.603426
    16  C   -0.092557
    17  C    0.597505
    18  H   -0.382719
    19  H   -0.325935
    20  H   -0.026120
    21  H    0.122384
    22  H   -0.063632
 Sum of Mulliken charges =  -0.00000

 Dipole moment (field-independent basis, Debye):
    X=             -0.4733    Y=              1.1205    Z=              0.5490  Tot=              1.3345
 Quadrupole moment (field-independent basis, Debye-Ang):
   XX=            -86.4938   YY=           -101.4567   ZZ=           -108.6058
   XY=              2.1662   XZ=             -3.4929   YZ=             -1.0836

 Normal termination of Gaussian 16 at Tue Oct 26 01:07:27 2021.
