 Gaussian 16, Revision C.01,
 Gaussian 16:  ES64L-G16RevC.01  3-Jul-2019

 ---------------------------------
 # opt=modredundant hf/aug-cc-pvdz
 ---------------------------------

 --------------
 pBTTT_-100.pdb
 --------------
 Symbolic Z-matrix:
 Charge =  0 Multiplicity = 1

 SCF Done:  E(RHF) =  -1613.75033638     A.U. after   18 cycles
 SCF Done:  E(RHF) =  -1613.79360796     A.U. after   16 cycles
 SCF Done:  E(RHF) =  -1613.80900065     A.U. after   15 cycles
 SCF Done:  E(RHF) =  -1613.81193160     A.U. after   16 cycles
 SCF Done:  E(RHF) =  -1613.81236598     A.U. after   14 cycles
 SCF Done:  E(RHF) =  -1613.81320896     A.U. after   13 cycles
 SCF Done:  E(RHF) =  -1613.81314643     A.U. after   13 cycles
 SCF Done:  E(RHF) =  -1613.81329986     A.U. after   12 cycles
 SCF Done:  E(RHF) =  -1613.81331021     A.U. after   11 cycles
 SCF Done:  E(RHF) =  -1613.81331857     A.U. after   11 cycles
 SCF Done:  E(RHF) =  -1613.81333664     A.U. after   11 cycles
 SCF Done:  E(RHF) =  -1613.81348183     A.U. after   14 cycles
 SCF Done:  E(RHF) =  -1613.81312785     A.U. after   15 cycles
 SCF Done:  E(RHF) =  -1613.81369147     A.U. after   12 cycles
 SCF Done:  E(RHF) =  -1613.81399286     A.U. after   13 cycles
 SCF Done:  E(RHF) =  -1613.81453582     A.U. after   14 cycles
 SCF Done:  E(RHF) =  -1613.81457909     A.U. after   13 cycles
 SCF Done:  E(RHF) =  -1613.81466690     A.U. after   12 cycles
 SCF Done:  E(RHF) =  -1613.81467428     A.U. after   12 cycles
 SCF Done:  E(RHF) =  -1613.81467921     A.U. after   11 cycles
 Optimization completed.
    -- Stationary point found.

                         Standard orientation:
 ---------------------------------------------------------------------
 Center     Atomic      Atomic             Coordinates (Angstroms)
 Number     Number       Type             X           Y           Z
 ---------------------------------------------------------------------
      1          6           0        3.973807    0.657006    0.143277
      2          6           0        2.587072    0.955860    0.411216
      3          6           0        1.759517    0.008620   -0.094037
      4          6           0        2.161640    2.181402    1.174545
      5          6           0        4.151830   -0.492155   -0.537838
      6          1           0        4.786776    1.291701    0.462530
      7         16           0        2.650041   -1.265428   -0.893572
      8          1           0        5.082123   -0.932044   -0.855492
      9          6           0        0.285626   -0.041021   -0.031556
     10         16           0       -0.523939   -1.053467    1.157738
     11          6           0       -2.078081   -0.545734    0.572697
     12          6           0       -1.949253    0.336769   -0.459602
     13          6           0       -0.590436    0.627045   -0.813818
     14          1           0       -0.283978    1.289606   -1.606701
     15         16           0       -3.503248    0.845880   -1.046980
     16          6           0       -4.298575   -0.161217    0.134377
     17          6           0       -3.439010   -0.839650    0.922533
     18          1           0       -5.374424   -0.188357    0.171221
     19          1           0       -3.745273   -1.511200    1.707860
     20          1           0        2.651865    2.210887    2.148478
     21          1           0        1.087128    2.199528    1.331163
     22          1           0        2.445281    3.086567    0.635210
 ---------------------------------------------------------------------

 The electronic state is 1-A.
 Alpha  occ. eigenvalues --  -91.99065 -91.98942 -91.98319 -11.28766 -11.27814
 Alpha  occ. eigenvalues --  -11.27443 -11.27309 -11.27156 -11.27144 -11.25814
 Alpha  occ. eigenvalues --  -11.25812 -11.25536 -11.24283 -11.23599  -8.99246
 Alpha  occ. eigenvalues --   -8.99096  -8.98536  -6.67413  -6.67335  -6.67260
 Alpha  occ. eigenvalues --   -6.67178  -6.67128  -6.66972  -6.66700  -6.66608
 Alpha  occ. eigenvalues --   -6.66417  -1.21734  -1.18538  -1.12853  -1.03924
 Alpha  occ. eigenvalues --   -1.02478  -1.01586  -0.95816  -0.94618  -0.91813
 Alpha  occ. eigenvalues --   -0.82086  -0.77383  -0.76425  -0.72673  -0.69975
 Alpha  occ. eigenvalues --   -0.67346  -0.66865  -0.60713  -0.59049  -0.58822
 Alpha  occ. eigenvalues --   -0.56700  -0.56332  -0.54667  -0.53814  -0.52507
 Alpha  occ. eigenvalues --   -0.51722  -0.50955  -0.49478  -0.47376  -0.46238
 Alpha  occ. eigenvalues --   -0.46062  -0.38816  -0.34201  -0.33184  -0.32152
 Alpha  occ. eigenvalues --   -0.30500
 Alpha virt. eigenvalues --    0.03395   0.03494   0.04145   0.04670   0.04916
 Alpha virt. eigenvalues --    0.05603   0.06322   0.07341   0.08452   0.08597
 Alpha virt. eigenvalues --    0.08835   0.08978   0.10185   0.10383   0.10852

 Mulliken charges:
               1
     1  C    0.762121
     2  C   -1.254745
     3  C    0.945979
     4  C    0.485050
     5  C   -0.323096
     6  H   -0.484121
     7  S    0.310631
     8  H   -0.358973
     9  C    0.450797
    10  S    0.368098
    11  C   -0.770991
    12  C   -0.393811
    13  C    0.170161
    14  H   -0.478538
    15  S    0.632583
    16  C   -0.045339
    17  C    0.684052
    18  H   -0.380498
    19  H   -0.328872
    20  H    0.045221
    21  H   -0.115433
    22  H    0.079725
 Sum of Mulliken charges =  -0.00000

 Dipole moment (field-independent basis, Debye):
    X=              0.3641    Y=              1.1087    Z=              0.6225  Tot=              1.3226
 Quadrupole moment (field-independent basis, Debye-Ang):
   XX=            -86.8794   YY=           -104.1501   ZZ=           -105.8318
   XY=              5.2745   XZ=             -2.6685   YZ=             -1.2682

 Normal termination of Gaussian 16 at Tue Oct 26 00:25:34 2021.
