 Gaussian 16, Revision C.01,
 Gaussian 16:  ES64L-G16RevC.01  3-Jul-2019

 ---------------------------------
 # opt=modredundant hf/aug-cc-pvdz
 ---------------------------------

 ------------
 pBTTT_35.pdb
 ------------
 Symbolic Z-matrix:
 Charge =  0 Multiplicity = 1

 SCF Done:  E(RHF) =  -1613.75230024     A.U. after   17 cycles
 SCF Done:  E(RHF) =  -1613.79409637     A.U. after   16 cycles
 SCF Done:  E(RHF) =  -1613.80842915     A.U. after   15 cycles
 SCF Done:  E(RHF) =  -1613.81136942     A.U. after   16 cycles
 SCF Done:  E(RHF) =  -1613.81199802     A.U. after   15 cycles
 SCF Done:  E(RHF) =  -1613.81282422     A.U. after   13 cycles
 SCF Done:  E(RHF) =  -1613.81298127     A.U. after   13 cycles
 SCF Done:  E(RHF) =  -1613.81302940     A.U. after   14 cycles
 SCF Done:  E(RHF) =  -1613.81316970     A.U. after   13 cycles
 SCF Done:  E(RHF) =  -1613.81328607     A.U. after   13 cycles
 SCF Done:  E(RHF) =  -1613.81339044     A.U. after   12 cycles
 SCF Done:  E(RHF) =  -1613.81342548     A.U. after   13 cycles
 SCF Done:  E(RHF) =  -1613.81343214     A.U. after   12 cycles
 SCF Done:  E(RHF) =  -1613.81343278     A.U. after   10 cycles
 SCF Done:  E(RHF) =  -1613.81343295     A.U. after    9 cycles
 SCF Done:  E(RHF) =  -1613.81343299     A.U. after    8 cycles
 Optimization completed.
    -- Stationary point found.

                         Standard orientation:
 ---------------------------------------------------------------------
 Center     Atomic      Atomic             Coordinates (Angstroms)
 Number     Number       Type             X           Y           Z
 ---------------------------------------------------------------------
      1          6           0        4.033004    0.268980    0.179641
      2          6           0        2.702882    0.809576    0.314854
      3          6           0        1.749185   -0.120970    0.040423
      4          6           0        2.480678    2.238349    0.745420
      5          6           0        4.058757   -1.026474   -0.190190
      6          1           0        4.922737    0.849648    0.370965
      7         16           0        2.466950   -1.651695   -0.409850
      8          1           0        4.920613   -1.653016   -0.344887
      9          6           0        0.282998   -0.012680    0.019086
     10         16           0       -0.528026    1.456410   -0.514229
     11          6           0       -2.083839    0.727838   -0.267442
     12          6           0       -1.957809   -0.552545    0.184404
     13          6           0       -0.603437   -0.982397    0.354367
     14          1           0       -0.309305   -1.953650    0.716726
     15         16           0       -3.513977   -1.281285    0.440356
     16          6           0       -4.305262    0.184682   -0.077830
     17          6           0       -3.442110    1.163537   -0.421106
     18          1           0       -5.380913    0.229392   -0.097967
     19          1           0       -3.745251    2.138595   -0.766048
     20          1           0        3.295650    2.558918    1.393040
     21          1           0        1.549169    2.356925    1.291606
     22          1           0        2.457865    2.910915   -0.113630
 ---------------------------------------------------------------------

 The electronic state is 1-A.
 Alpha  occ. eigenvalues --  -91.99086 -91.99031 -91.98450 -11.29118 -11.27845
 Alpha  occ. eigenvalues --  -11.27769 -11.27310 -11.27165 -11.27127 -11.25838
 Alpha  occ. eigenvalues --  -11.25618 -11.25591 -11.24397 -11.23699  -8.99265
 Alpha  occ. eigenvalues --   -8.99213  -8.98690  -6.67431  -6.67380  -6.67351
 Alpha  occ. eigenvalues --   -6.67302  -6.67142  -6.67095  -6.66858  -6.66765
 Alpha  occ. eigenvalues --   -6.66572  -1.21819  -1.18651  -1.12902  -1.03994
 Alpha  occ. eigenvalues --   -1.02742  -1.01750  -0.95593  -0.94768  -0.92046
 Alpha  occ. eigenvalues --   -0.82252  -0.77813  -0.76632  -0.71876  -0.70324
 Alpha  occ. eigenvalues --   -0.67506  -0.66936  -0.60535  -0.59181  -0.58967
 Alpha  occ. eigenvalues --   -0.56799  -0.56469  -0.54875  -0.53847  -0.52471
 Alpha  occ. eigenvalues --   -0.51686  -0.51490  -0.49649  -0.47217  -0.46602
 Alpha  occ. eigenvalues --   -0.45999  -0.39152  -0.35168  -0.34218  -0.32312
 Alpha  occ. eigenvalues --   -0.28392
 Alpha virt. eigenvalues --    0.03447   0.03479   0.04097   0.04814   0.04883
 Alpha virt. eigenvalues --    0.05848   0.06063   0.06928   0.07576   0.08562
 Alpha virt. eigenvalues --    0.09303   0.09637   0.10403   0.10500   0.11083

 Mulliken charges:
               1
     1  C    0.520458
     2  C   -0.805729
     3  C    0.851466
     4  C    0.561847
     5  C   -0.318500
     6  H   -0.499882
     7  S    0.425359
     8  H   -0.364130
     9  C    0.005032
    10  S    0.420561
    11  C   -0.700622
    12  C   -0.241715
    13  C    0.349083
    14  H   -0.518943
    15  S    0.564643
    16  C   -0.119154
    17  C    0.527230
    18  H   -0.385084
    19  H   -0.328135
    20  H   -0.144483
    21  H    0.065462
    22  H    0.135236
 Sum of Mulliken charges =  -0.00000

 Dipole moment (field-independent basis, Debye):
    X=              0.5449    Y=              1.1964    Z=              0.3671  Tot=              1.3650
 Quadrupole moment (field-independent basis, Debye-Ang):
   XX=            -86.2225   YY=            -99.8271   ZZ=           -110.3117
   XY=             -2.3609   XZ=              2.3099   YZ=             -0.7454

 Normal termination of Gaussian 16 at Tue Oct 26 01:03:40 2021.
