 Gaussian 16, Revision C.01,
 Gaussian 16:  ES64L-G16RevC.01  3-Jul-2019

 ---------------------------------
 # opt=modredundant hf/aug-cc-pvdz
 ---------------------------------

 -------------
 pBTTT_130.pdb
 -------------
 Symbolic Z-matrix:
 Charge =  0 Multiplicity = 1

 SCF Done:  E(RHF) =  -1613.75244348     A.U. after   18 cycles
 SCF Done:  E(RHF) =  -1613.79477333     A.U. after   15 cycles
 SCF Done:  E(RHF) =  -1613.80906448     A.U. after   15 cycles
 SCF Done:  E(RHF) =  -1613.81199044     A.U. after   15 cycles
 SCF Done:  E(RHF) =  -1613.81250443     A.U. after   14 cycles
 SCF Done:  E(RHF) =  -1613.81336292     A.U. after   14 cycles
 SCF Done:  E(RHF) =  -1613.81350738     A.U. after   14 cycles
 SCF Done:  E(RHF) =  -1613.81374880     A.U. after   13 cycles
 SCF Done:  E(RHF) =  -1613.81403115     A.U. after   13 cycles
 SCF Done:  E(RHF) =  -1613.81421828     A.U. after   14 cycles
 SCF Done:  E(RHF) =  -1613.81444577     A.U. after   13 cycles
 SCF Done:  E(RHF) =  -1613.81450716     A.U. after   13 cycles
 SCF Done:  E(RHF) =  -1613.81452321     A.U. after   11 cycles
 SCF Done:  E(RHF) =  -1613.81452487     A.U. after   11 cycles
 SCF Done:  E(RHF) =  -1613.81452499     A.U. after    9 cycles
 Optimization completed.
    -- Stationary point found.

                         Standard orientation:
 ---------------------------------------------------------------------
 Center     Atomic      Atomic             Coordinates (Angstroms)
 Number     Number       Type             X           Y           Z
 ---------------------------------------------------------------------
      1          6           0       -3.960410    0.736551    0.108133
      2          6           0       -2.570287    1.045874    0.338926
      3          6           0       -1.756652    0.027026   -0.041862
      4          6           0       -2.138416    2.349907    0.956698
      5          6           0       -4.159570   -0.486332   -0.421655
      6          1           0       -4.762915    1.416702    0.351184
      7         16           0       -2.671199   -1.319952   -0.680919
      8          1           0       -5.097462   -0.951173   -0.674207
      9          6           0       -0.287938   -0.035189   -0.001650
     10         16           0        0.528128   -1.414486    0.727040
     11          6           0        2.079550   -0.731891    0.350099
     12          6           0        1.946522    0.469955   -0.280995
     13          6           0        0.587672    0.871365   -0.494088
     14          1           0        0.283361    1.770206   -1.004090
     15         16           0        3.498365    1.153410   -0.660074
     16          6           0        4.298206   -0.221897    0.055657
     17          6           0        3.441051   -1.139791    0.548882
     18          1           0        5.374088   -0.264694    0.066213
     19          1           0        3.749893   -2.055023    1.026914
     20          1           0       -2.791967    2.603720    1.791340
     21          1           0       -2.200346    3.164282    0.232285
     22          1           0       -1.117707    2.298971    1.324744
 ---------------------------------------------------------------------

 The electronic state is 1-A.
 Alpha  occ. eigenvalues --  -91.99069 -91.98974 -91.98404 -11.28938 -11.27785
 Alpha  occ. eigenvalues --  -11.27676 -11.27315 -11.27169 -11.27159 -11.25818
 Alpha  occ. eigenvalues --  -11.25762 -11.25583 -11.24374 -11.23773  -8.99249
 Alpha  occ. eigenvalues --   -8.99140  -8.98635  -6.67416  -6.67338  -6.67304
 Alpha  occ. eigenvalues --   -6.67223  -6.67132  -6.67015  -6.66800  -6.66707
 Alpha  occ. eigenvalues --   -6.66516  -1.21781  -1.18624  -1.12883  -1.04081
 Alpha  occ. eigenvalues --   -1.02441  -1.01778  -0.95878  -0.94581  -0.91973
 Alpha  occ. eigenvalues --   -0.82216  -0.77348  -0.76657  -0.72759  -0.70007
 Alpha  occ. eigenvalues --   -0.67412  -0.66879  -0.60741  -0.59129  -0.58917
 Alpha  occ. eigenvalues --   -0.56699  -0.56337  -0.54660  -0.54002  -0.52545
 Alpha  occ. eigenvalues --   -0.51895  -0.51076  -0.49476  -0.47351  -0.46486
 Alpha  occ. eigenvalues --   -0.46113  -0.38977  -0.34649  -0.34108  -0.32255
 Alpha  occ. eigenvalues --   -0.29119
 Alpha virt. eigenvalues --    0.03390   0.03523   0.04070   0.04807   0.04939
 Alpha virt. eigenvalues --    0.05488   0.06655   0.07334   0.07796   0.08461
 Alpha virt. eigenvalues --    0.08772   0.09383   0.10215   0.10722   0.11159

 Mulliken charges:
               1
     1  C    0.602582
     2  C   -0.933953
     3  C    0.763185
     4  C    0.505848
     5  C   -0.287502
     6  H   -0.481169
     7  S    0.371499
     8  H   -0.359412
     9  C    0.275865
    10  S    0.397845
    11  C   -0.750243
    12  C   -0.332281
    13  C    0.280164
    14  H   -0.477198
    15  S    0.608985
    16  C   -0.063506
    17  C    0.588878
    18  H   -0.380542
    19  H   -0.328446
    20  H   -0.051386
    21  H    0.111906
    22  H   -0.061119
 Sum of Mulliken charges =  -0.00000

 Dipole moment (field-independent basis, Debye):
    X=             -0.3897    Y=              1.1170    Z=              0.4556  Tot=              1.2677
 Quadrupole moment (field-independent basis, Debye-Ang):
   XX=            -86.7931   YY=           -100.9067   ZZ=           -109.0368
   XY=             -6.5183   XZ=              1.5538   YZ=             -0.9935

 Normal termination of Gaussian 16 at Tue Oct 26 01:40:18 2021.
