 Gaussian 16, Revision C.01,
 Gaussian 16:  ES64L-G16RevC.01  3-Jul-2019

 ---------------------------------
 # opt=modredundant hf/aug-cc-pvdz
 ---------------------------------

 --------------
 pBTTT_-160.pdb
 --------------
 Symbolic Z-matrix:
 Charge =  0 Multiplicity = 1

 SCF Done:  E(RHF) =  -1613.75204333     A.U. after   18 cycles
 SCF Done:  E(RHF) =  -1613.79302033     A.U. after   16 cycles
 SCF Done:  E(RHF) =  -1613.80685764     A.U. after   15 cycles
 SCF Done:  E(RHF) =  -1613.81003863     A.U. after   17 cycles
 SCF Done:  E(RHF) =  -1613.81100975     A.U. after   14 cycles
 SCF Done:  E(RHF) =  -1613.81166895     A.U. after   14 cycles
 SCF Done:  E(RHF) =  -1613.81191637     A.U. after   14 cycles
 SCF Done:  E(RHF) =  -1613.81202493     A.U. after   12 cycles
 SCF Done:  E(RHF) =  -1613.81208394     A.U. after   13 cycles
 SCF Done:  E(RHF) =  -1613.81211374     A.U. after   12 cycles
 SCF Done:  E(RHF) =  -1613.81212648     A.U. after   11 cycles
 SCF Done:  E(RHF) =  -1613.81212891     A.U. after   11 cycles
 SCF Done:  E(RHF) =  -1613.81212959     A.U. after   10 cycles
 SCF Done:  E(RHF) =  -1613.81212999     A.U. after   10 cycles
 Optimization completed.
    -- Stationary point found.

                         Standard orientation:
 ---------------------------------------------------------------------
 Center     Atomic      Atomic             Coordinates (Angstroms)
 Number     Number       Type             X           Y           Z
 ---------------------------------------------------------------------
      1          6           0        3.961442    0.768926   -0.003605
      2          6           0        2.575473    1.120787    0.165901
      3          6           0        1.755776    0.041058    0.026740
      4          6           0        2.156907    2.530681    0.495313
      5          6           0        4.161537   -0.537724   -0.266974
      6          1           0        4.763079    1.486479    0.084312
      7         16           0        2.673757   -1.403888   -0.334475
      8          1           0        5.097439   -1.046549   -0.422300
      9          6           0        0.288695   -0.017294    0.058999
     10         16           0       -0.526379   -1.547858    0.380978
     11          6           0       -2.080535   -0.806303    0.168638
     12          6           0       -1.952847    0.518751   -0.123936
     13          6           0       -0.598732    0.976355   -0.199839
     14          1           0       -0.317091    1.978818   -0.466681
     15         16           0       -3.507879    1.265233   -0.334330
     16          6           0       -4.300649   -0.255929   -0.014871
     17          6           0       -3.438539   -1.263591    0.235035
     18          1           0       -5.375926   -0.309001   -0.033286
     19          1           0       -3.742255   -2.274388    0.453125
     20          1           0        2.980932    3.062977    0.967507
     21          1           0        1.309610    2.545804    1.177700
     22          1           0        1.881061    3.085762   -0.403546
 ---------------------------------------------------------------------

 The electronic state is 1-A.
 Alpha  occ. eigenvalues --  -91.99059 -91.98950 -91.98524 -11.29263 -11.27981
 Alpha  occ. eigenvalues --  -11.27765 -11.27311 -11.27166 -11.27154 -11.25830
 Alpha  occ. eigenvalues --  -11.25687 -11.25637 -11.24478 -11.24106  -8.99241
 Alpha  occ. eigenvalues --   -8.99144  -8.98776  -6.67408  -6.67330  -6.67311
 Alpha  occ. eigenvalues --   -6.67230  -6.67124  -6.67018  -6.66943  -6.66850
 Alpha  occ. eigenvalues --   -6.66657  -1.21825  -1.18747  -1.12892  -1.04319
 Alpha  occ. eigenvalues --   -1.02446  -1.01965  -0.95922  -0.94536  -0.92248
 Alpha  occ. eigenvalues --   -0.82345  -0.77387  -0.76965  -0.72726  -0.70212
 Alpha  occ. eigenvalues --   -0.67491  -0.66921  -0.60687  -0.59366  -0.59073
 Alpha  occ. eigenvalues --   -0.56717  -0.56358  -0.54854  -0.54225  -0.52479
 Alpha  occ. eigenvalues --   -0.52119  -0.51354  -0.49415  -0.47416  -0.46907
 Alpha  occ. eigenvalues --   -0.45798  -0.39255  -0.35506  -0.34336  -0.32279
 Alpha  occ. eigenvalues --   -0.28034
 Alpha virt. eigenvalues --    0.03353   0.03530   0.03993   0.04927   0.05013
 Alpha virt. eigenvalues --    0.05496   0.06622   0.06791   0.07972   0.08291
 Alpha virt. eigenvalues --    0.08859   0.09877   0.10195   0.10761   0.10884

 Mulliken charges:
               1
     1  C    0.494339
     2  C   -0.434516
     3  C    0.285062
     4  C    0.507258
     5  C   -0.279591
     6  H   -0.507722
     7  S    0.493023
     8  H   -0.374344
     9  C   -0.069850
    10  S    0.472175
    11  C   -0.622506
    12  C   -0.338538
    13  C    0.632755
    14  H   -0.583454
    15  S    0.545824
    16  C   -0.112028
    17  C    0.496715
    18  H   -0.386034
    19  H   -0.331122
    20  H   -0.232356
    21  H    0.147311
    22  H    0.197598
 Sum of Mulliken charges =  -0.00000

 Dipole moment (field-independent basis, Debye):
    X=              0.4555    Y=              1.1373    Z=              0.1214  Tot=              1.2311
 Quadrupole moment (field-independent basis, Debye-Ang):
   XX=            -86.5782   YY=            -98.7762   ZZ=           -111.0901
   XY=              7.0859   XZ=             -0.8505   YZ=             -0.3608

 1\1\GINC-CX3-12-20\FOpt\RHF\Aug-CC-pVDZ\C11H8S3\NS5018\25-Oct-2021\0\\
 # opt=modredundant hf/aug-cc-pvdz\\pBTTT_-160.pdb\\0,1\C,-4.1513528879
 ,-1.3697175261,0.0203675392\C,-2.9065619263,-0.9908568557,-0.596405152
 9\C,-2.0711785553,-2.0561475009,-0.7525251411\C,-2.6429868172,0.429008
 2244,-1.0277086291\C,-4.232535899,-2.6817982136,0.3180063189\H,-4.9471
 781368,-0.6665767903,0.21398696\S,-2.7944355077,-3.5205932595,-0.12536
 27725\H,-5.0554015933,-3.2091061775,0.7694276529\C,-0.6980054328,-2.08
 69325982,-1.2723513189\S,-0.0138631488,-3.5996069102,-1.8676717438\C,1

 Normal termination of Gaussian 16 at Mon Oct 25 22:13:04 2021.
