 Gaussian 16, Revision C.01,
 Gaussian 16:  ES64L-G16RevC.01  3-Jul-2019

 ---------------------------------
 # opt=modredundant hf/aug-cc-pvdz
 ---------------------------------

 -------------
 pBTTT_-85.pdb
 -------------
 Symbolic Z-matrix:
 Charge =  0 Multiplicity = 1

 SCF Done:  E(RHF) =  -1613.75060862     A.U. after   18 cycles
 SCF Done:  E(RHF) =  -1613.79392234     A.U. after   16 cycles
 SCF Done:  E(RHF) =  -1613.80925053     A.U. after   15 cycles
 SCF Done:  E(RHF) =  -1613.81216222     A.U. after   16 cycles
 SCF Done:  E(RHF) =  -1613.81257045     A.U. after   14 cycles
 SCF Done:  E(RHF) =  -1613.81339584     A.U. after   14 cycles
 SCF Done:  E(RHF) =  -1613.81342157     A.U. after   13 cycles
 SCF Done:  E(RHF) =  -1613.81344972     A.U. after   12 cycles
 SCF Done:  E(RHF) =  -1613.81347674     A.U. after   12 cycles
 SCF Done:  E(RHF) =  -1613.81348391     A.U. after   11 cycles
 SCF Done:  E(RHF) =  -1613.81356842     A.U. after   14 cycles
 SCF Done:  E(RHF) =  -1613.81365365     A.U. after   12 cycles
 SCF Done:  E(RHF) =  -1613.81407992     A.U. after   14 cycles
 SCF Done:  E(RHF) =  -1613.81450558     A.U. after   13 cycles
 SCF Done:  E(RHF) =  -1613.81471165     A.U. after   13 cycles
 SCF Done:  E(RHF) =  -1613.81475377     A.U. after   12 cycles
 SCF Done:  E(RHF) =  -1613.81476064     A.U. after   11 cycles
 SCF Done:  E(RHF) =  -1613.81476418     A.U. after   11 cycles
 SCF Done:  E(RHF) =  -1613.81476429     A.U. after    9 cycles
 SCF Done:  E(RHF) =  -1613.81476430     A.U. after    7 cycles
 Optimization completed.
    -- Stationary point found.

                         Standard orientation:
 ---------------------------------------------------------------------
 Center     Atomic      Atomic             Coordinates (Angstroms)
 Number     Number       Type             X           Y           Z
 ---------------------------------------------------------------------
      1          6           0        3.988487    0.424734   -0.425811
      2          6           0        2.611144    0.840609   -0.541407
      3          6           0        1.758976   -0.093120   -0.052624
      4          6           0        2.215416    2.161740   -1.144306
      5          6           0        4.135149   -0.789920    0.139754
      6          1           0        4.817888    1.028398   -0.762531
      7         16           0        2.613630   -1.488372    0.560121
      8          1           0        5.052692   -1.319726    0.332857
      9          6           0        0.284452   -0.042154    0.010073
     10         16           0       -0.521524    0.749751    1.358107
     11          6           0       -2.077567    0.363648    0.690837
     12          6           0       -1.951475   -0.329195   -0.477594
     13          6           0       -0.593603   -0.567779   -0.872066
     14          1           0       -0.289304   -1.097561   -1.759981
     15         16           0       -3.506953   -0.716309   -1.148060
     16          6           0       -4.299149    0.079561    0.186520
     17          6           0       -3.437569    0.604762    1.082167
     18          1           0       -5.374896    0.108233    0.225100
     19          1           0       -3.741863    1.132505    1.971218
     20          1           0        2.592107    2.242268   -2.164981
     21          1           0        2.639225    2.986593   -0.569751
     22          1           0        1.136138    2.280862   -1.167869
 ---------------------------------------------------------------------

 The electronic state is 1-A.
 Alpha  occ. eigenvalues --  -91.99060 -91.98949 -91.98335 -11.28759 -11.27816
 Alpha  occ. eigenvalues --  -11.27417 -11.27311 -11.27156 -11.27126 -11.25816
 Alpha  occ. eigenvalues --  -11.25815 -11.25505 -11.24278 -11.23570  -8.99241
 Alpha  occ. eigenvalues --   -8.99103  -8.98549  -6.67408  -6.67330  -6.67266
 Alpha  occ. eigenvalues --   -6.67184  -6.67124  -6.66978  -6.66713  -6.66621
 Alpha  occ. eigenvalues --   -6.66430  -1.21734  -1.18538  -1.12854  -1.03890
 Alpha  occ. eigenvalues --   -1.02517  -1.01563  -0.95779  -0.94650  -0.91795
 Alpha  occ. eigenvalues --   -0.82070  -0.77439  -0.76410  -0.72548  -0.70016
 Alpha  occ. eigenvalues --   -0.67338  -0.66869  -0.60671  -0.59069  -0.58818
 Alpha  occ. eigenvalues --   -0.56712  -0.56324  -0.54694  -0.53792  -0.52490
 Alpha  occ. eigenvalues --   -0.51681  -0.50976  -0.49489  -0.47384  -0.46258
 Alpha  occ. eigenvalues --   -0.46006  -0.38813  -0.34193  -0.33019  -0.32206
 Alpha  occ. eigenvalues --   -0.30607
 Alpha virt. eigenvalues --    0.03403   0.03482   0.04172   0.04639   0.04901
 Alpha virt. eigenvalues --    0.05704   0.06160   0.07347   0.08406   0.08682
 Alpha virt. eigenvalues --    0.08808   0.08989   0.10166   0.10340   0.11072

 Mulliken charges:
               1
     1  C    0.743168
     2  C   -1.213572
     3  C    0.923196
     4  C    0.470532
     5  C   -0.310047
     6  H   -0.484282
     7  S    0.296357
     8  H   -0.358977
     9  C    0.441843
    10  S    0.345238
    11  C   -0.758925
    12  C   -0.389495
    13  C    0.192130
    14  H   -0.483921
    15  S    0.633508
    16  C   -0.050731
    17  C    0.692178
    18  H   -0.381676
    19  H   -0.326789
    20  H    0.058703
    21  H    0.077330
    22  H   -0.115767
 Sum of Mulliken charges =   0.00000

 Dipole moment (field-independent basis, Debye):
    X=              0.3830    Y=              1.1270    Z=             -0.5797  Tot=              1.3239
 Quadrupole moment (field-independent basis, Debye-Ang):
   XX=            -86.8100   YY=           -105.1106   ZZ=           -104.8906
   XY=             -0.4417   XZ=             -5.3445   YZ=              1.0578

 Normal termination of Gaussian 16 at Tue Oct 26 00:30:52 2021.
