 Gaussian 16, Revision C.01,
 Gaussian 16:  ES64L-G16RevC.01  3-Jul-2019

 ---------------------------------
 # opt=modredundant hf/aug-cc-pvdz
 ---------------------------------

 ------------
 pBTTT_15.pdb
 ------------
 Symbolic Z-matrix:
 Charge =  0 Multiplicity = 1

 SCF Done:  E(RHF) =  -1613.75280425     A.U. after   18 cycles
 SCF Done:  E(RHF) =  -1613.79398376     A.U. after   16 cycles
 SCF Done:  E(RHF) =  -1613.80775983     A.U. after   16 cycles
 SCF Done:  E(RHF) =  -1613.81063406     A.U. after   17 cycles
 SCF Done:  E(RHF) =  -1613.81139797     A.U. after   15 cycles
 SCF Done:  E(RHF) =  -1613.81188642     A.U. after   15 cycles
 SCF Done:  E(RHF) =  -1613.81206266     A.U. after   14 cycles
 SCF Done:  E(RHF) =  -1613.81206309     A.U. after   14 cycles
 SCF Done:  E(RHF) =  -1613.81210833     A.U. after   12 cycles
 SCF Done:  E(RHF) =  -1613.81213053     A.U. after   11 cycles
 SCF Done:  E(RHF) =  -1613.81214715     A.U. after   12 cycles
 SCF Done:  E(RHF) =  -1613.81215154     A.U. after   12 cycles
 SCF Done:  E(RHF) =  -1613.81215282     A.U. after   10 cycles
 SCF Done:  E(RHF) =  -1613.81215325     A.U. after   10 cycles
 Optimization completed.
    -- Stationary point found.

                         Standard orientation:
 ---------------------------------------------------------------------
 Center     Atomic      Atomic             Coordinates (Angstroms)
 Number     Number       Type             X           Y           Z
 ---------------------------------------------------------------------
      1          6           0        4.040899    0.257043    0.076906
      2          6           0        2.718742    0.828609    0.139372
      3          6           0        1.748674   -0.121343    0.022578
      4          6           0        2.524701    2.313995    0.326944
      5          6           0        4.050178   -1.079405   -0.088556
      6          1           0        4.937928    0.851169    0.161372
      7         16           0        2.450070   -1.712238   -0.186502
      8          1           0        4.902629   -1.733169   -0.158365
      9          6           0        0.284165   -0.005913    0.013542
     10         16           0       -0.538157    1.536943   -0.219834
     11          6           0       -2.089610    0.768216   -0.118921
     12          6           0       -1.958155   -0.573415    0.081914
     13          6           0       -0.603383   -1.022413    0.162118
     14          1           0       -0.313851   -2.046632    0.328554
     15         16           0       -3.511255   -1.343915    0.193693
     16          6           0       -4.308707    0.190940   -0.037713
     17          6           0       -3.449225    1.220291   -0.188676
     18          1           0       -5.384499    0.234494   -0.049096
     19          1           0       -3.756068    2.242010   -0.342192
     20          1           0        3.469818    2.775692    0.605877
     21          1           0        1.801862    2.532186    1.110325
     22          1           0        2.181970    2.791973   -0.591241
 ---------------------------------------------------------------------

 The electronic state is 1-A.
 Alpha  occ. eigenvalues --  -91.99117 -91.99011 -91.98473 -11.29307 -11.28042
 Alpha  occ. eigenvalues --  -11.27730 -11.27292 -11.27196 -11.27115 -11.25833
 Alpha  occ. eigenvalues --  -11.25708 -11.25519 -11.24462 -11.23839  -8.99303
 Alpha  occ. eigenvalues --   -8.99192  -8.98733  -6.67469  -6.67390  -6.67358
 Alpha  occ. eigenvalues --   -6.67281  -6.67179  -6.67074  -6.66904  -6.66811
 Alpha  occ. eigenvalues --   -6.66617  -1.21837  -1.18716  -1.12899  -1.04139
 Alpha  occ. eigenvalues --   -1.02821  -1.01787  -0.95555  -0.94766  -0.92214
 Alpha  occ. eigenvalues --   -0.82334  -0.77988  -0.76683  -0.71648  -0.70468
 Alpha  occ. eigenvalues --   -0.67643  -0.66977  -0.60489  -0.59282  -0.59071
 Alpha  occ. eigenvalues --   -0.56795  -0.56583  -0.54983  -0.53936  -0.52318
 Alpha  occ. eigenvalues --   -0.51888  -0.51688  -0.49657  -0.47155  -0.46800
 Alpha  occ. eigenvalues --   -0.45839  -0.39365  -0.35613  -0.34373  -0.32337
 Alpha  occ. eigenvalues --   -0.27788
 Alpha virt. eigenvalues --    0.03421   0.03464   0.04020   0.04768   0.05011
 Alpha virt. eigenvalues --    0.05886   0.06097   0.06536   0.07468   0.08483
 Alpha virt. eigenvalues --    0.09624   0.10028   0.10333   0.10541   0.10991

 Mulliken charges:
               1
     1  C    0.514344
     2  C   -0.636695
     3  C    0.579803
     4  C    0.599602
     5  C   -0.342569
     6  H   -0.527973
     7  S    0.527595
     8  H   -0.383136
     9  C   -0.053499
    10  S    0.537787
    11  C   -0.808754
    12  C   -0.168775
    13  C    0.443261
    14  H   -0.542579
    15  S    0.516066
    16  C   -0.153722
    17  C    0.499189
    18  H   -0.389821
    19  H   -0.330066
    20  H   -0.229183
    21  H    0.171928
    22  H    0.177196
 Sum of Mulliken charges =  -0.00000

 Dipole moment (field-independent basis, Debye):
    X=              0.6348    Y=              1.2489    Z=              0.1664  Tot=              1.4108
 Quadrupole moment (field-independent basis, Debye-Ang):
   XX=            -85.9351   YY=            -98.7562   ZZ=           -111.4831
   XY=             -2.3760   XZ=              1.0418   YZ=             -0.3251

 1\1\GINC-CX3-12-20\FOpt\RHF\Aug-CC-pVDZ\C11H8S3\NS5018\26-Oct-2021\0\\
 # opt=modredundant hf/aug-cc-pvdz\\pBTTT_15.pdb\\0,1\C,-4.2459076718,-
 1.428513644,-0.3202291959\C,-2.8966837718,-1.0171575477,-0.6186754804\
 C,-2.0196693863,-2.0573225686,-0.5413280983\C,-2.5848508989,0.41573522
 39,-0.9775434902\C,-4.3642588687,-2.7366708849,-0.0231166446\H,-5.0818
 278804,-0.7461531895,-0.3403147673\S,-2.838244513,-3.5355881411,-0.081
 6698996\H,-5.2583166695,-3.2818122408,0.2267509292\C,-0.5654207624,-2.
 1076090244,-0.7433756264\S,0.4320081371,-0.653312669,-0.7786115598\C,1

 Normal termination of Gaussian 16 at Tue Oct 26 00:53:35 2021.
