 Gaussian 16, Revision C.01,
 Gaussian 16:  ES64L-G16RevC.01  3-Jul-2019

 ---------------------------------
 # opt=modredundant hf/aug-cc-pvdz
 ---------------------------------

 -------------
 pBTTT_110.pdb
 -------------
 Symbolic Z-matrix:
 Charge =  0 Multiplicity = 1

 SCF Done:  E(RHF) =  -1613.75163416     A.U. after   18 cycles
 SCF Done:  E(RHF) =  -1613.79445946     A.U. after   15 cycles
 SCF Done:  E(RHF) =  -1613.80924452     A.U. after   15 cycles
 SCF Done:  E(RHF) =  -1613.81216313     A.U. after   16 cycles
 SCF Done:  E(RHF) =  -1613.81253616     A.U. after   14 cycles
 SCF Done:  E(RHF) =  -1613.81329812     A.U. after   14 cycles
 SCF Done:  E(RHF) =  -1613.81334390     A.U. after   13 cycles
 SCF Done:  E(RHF) =  -1613.81344237     A.U. after   13 cycles
 SCF Done:  E(RHF) =  -1613.81353745     A.U. after   13 cycles
 SCF Done:  E(RHF) =  -1613.81380765     A.U. after   14 cycles
 SCF Done:  E(RHF) =  -1613.81405045     A.U. after   13 cycles
 SCF Done:  E(RHF) =  -1613.81456515     A.U. after   14 cycles
 SCF Done:  E(RHF) =  -1613.81459370     A.U. after   14 cycles
 SCF Done:  E(RHF) =  -1613.81468028     A.U. after   13 cycles
 SCF Done:  E(RHF) =  -1613.81469076     A.U. after   11 cycles
 SCF Done:  E(RHF) =  -1613.81469098     A.U. after    9 cycles
 Optimization completed.
    -- Stationary point found.

                         Standard orientation:
 ---------------------------------------------------------------------
 Center     Atomic      Atomic             Coordinates (Angstroms)
 Number     Number       Type             X           Y           Z
 ---------------------------------------------------------------------
      1          6           0       -3.966585    0.687406    0.162567
      2          6           0       -2.576434    0.976862    0.422355
      3          6           0       -1.758698    0.019604   -0.081961
      4          6           0       -2.142195    2.201247    1.183047
      5          6           0       -4.157893   -0.464742   -0.509570
      6          1           0       -4.772873    1.329439    0.484133
      7         16           0       -2.664514   -1.252184   -0.868823
      8          1           0       -5.093552   -0.900490   -0.816867
      9          6           0       -0.286378   -0.041572   -0.030739
     10         16           0        0.524716   -1.237650    0.973006
     11          6           0        2.078132   -0.639622    0.478408
     12          6           0        1.948298    0.404618   -0.389700
     13          6           0        0.589416    0.749045   -0.690056
     14          1           0        0.283003    1.531909   -1.364347
     15         16           0        3.501811    1.003267   -0.887014
     16          6           0        4.298248   -0.189703    0.105554
     17          6           0        3.439252   -0.990359    0.769931
     18          1           0        5.374121   -0.223804    0.134922
     19          1           0        3.746149   -1.785233    1.429866
     20          1           0       -2.680760    2.268576    2.128981
     21          1           0       -2.361854    3.106286    0.614118
     22          1           0       -1.077429    2.181682    1.395481
 ---------------------------------------------------------------------

 The electronic state is 1-A.
 Alpha  occ. eigenvalues --  -91.99067 -91.98951 -91.98333 -11.28803 -11.27805
 Alpha  occ. eigenvalues --  -11.27505 -11.27307 -11.27160 -11.27152 -11.25814
 Alpha  occ. eigenvalues --  -11.25796 -11.25559 -11.24303 -11.23637  -8.99247
 Alpha  occ. eigenvalues --   -8.99107  -8.98554  -6.67414  -6.67336  -6.67270
 Alpha  occ. eigenvalues --   -6.67189  -6.67130  -6.66982  -6.66719  -6.66627
 Alpha  occ. eigenvalues --   -6.66435  -1.21744  -1.18558  -1.12860  -1.03964
 Alpha  occ. eigenvalues --   -1.02459  -1.01639  -0.95839  -0.94601  -0.91851
 Alpha  occ. eigenvalues --   -0.82120  -0.77360  -0.76478  -0.72724  -0.69969
 Alpha  occ. eigenvalues --   -0.67363  -0.66866  -0.60733  -0.59060  -0.58840
 Alpha  occ. eigenvalues --   -0.56695  -0.56336  -0.54656  -0.53851  -0.52530
 Alpha  occ. eigenvalues --   -0.51767  -0.50972  -0.49479  -0.47365  -0.46257
 Alpha  occ. eigenvalues --   -0.46125  -0.38848  -0.34241  -0.33585  -0.32168
 Alpha  occ. eigenvalues --   -0.30072
 Alpha virt. eigenvalues --    0.03394   0.03507   0.04119   0.04710   0.04926
 Alpha virt. eigenvalues --    0.05553   0.06442   0.07344   0.08353   0.08497
 Alpha virt. eigenvalues --    0.08810   0.09060   0.10269   0.10531   0.10775

 Mulliken charges:
               1
     1  C    0.721005
     2  C   -1.192329
     3  C    0.918442
     4  C    0.495240
     5  C   -0.313813
     6  H   -0.481892
     7  S    0.327731
     8  H   -0.359435
     9  C    0.399183
    10  S    0.382813
    11  C   -0.775705
    12  C   -0.367604
    13  C    0.197953
    14  H   -0.478164
    15  S    0.628572
    16  C   -0.050858
    17  C    0.653578
    18  H   -0.379339
    19  H   -0.329435
    20  H    0.022142
    21  H    0.095161
    22  H   -0.113247
 Sum of Mulliken charges =  -0.00000

 Dipole moment (field-independent basis, Debye):
    X=             -0.3658    Y=              1.0961    Z=              0.6229  Tot=              1.3127
 Quadrupole moment (field-independent basis, Debye-Ang):
   XX=            -86.8832   YY=           -102.8737   ZZ=           -107.0924
   XY=             -5.8457   XZ=              2.0951   YZ=             -1.2453

 Normal termination of Gaussian 16 at Tue Oct 26 01:15:31 2021.
