 Gaussian 16, Revision C.01,
 Gaussian 16:  ES64L-G16RevC.01  3-Jul-2019

 ---------------------------------
 # opt=modredundant hf/aug-cc-pvdz
 ---------------------------------

 ------------
 pBTTT_70.pdb
 ------------
 Symbolic Z-matrix:
 Charge =  0 Multiplicity = 1

 SCF Done:  E(RHF) =  -1613.75131853     A.U. after   18 cycles
 SCF Done:  E(RHF) =  -1613.79426099     A.U. after   16 cycles
 SCF Done:  E(RHF) =  -1613.80927496     A.U. after   15 cycles
 SCF Done:  E(RHF) =  -1613.81225087     A.U. after   16 cycles
 SCF Done:  E(RHF) =  -1613.81266459     A.U. after   14 cycles
 SCF Done:  E(RHF) =  -1613.81345891     A.U. after   13 cycles
 SCF Done:  E(RHF) =  -1613.81349947     A.U. after   13 cycles
 SCF Done:  E(RHF) =  -1613.81353560     A.U. after   13 cycles
 SCF Done:  E(RHF) =  -1613.81357072     A.U. after   12 cycles
 SCF Done:  E(RHF) =  -1613.81367983     A.U. after   12 cycles
 SCF Done:  E(RHF) =  -1613.81407532     A.U. after   14 cycles
 SCF Done:  E(RHF) =  -1613.81434387     A.U. after   15 cycles
 SCF Done:  E(RHF) =  -1613.81460647     A.U. after   13 cycles
 SCF Done:  E(RHF) =  -1613.81466552     A.U. after   14 cycles
 SCF Done:  E(RHF) =  -1613.81147625     A.U. after   15 cycles
 SCF Done:  E(RHF) =  -1613.81473653     A.U. after   12 cycles
 SCF Done:  E(RHF) =  -1613.81480141     A.U. after   13 cycles
 SCF Done:  E(RHF) =  -1613.81483852     A.U. after   12 cycles
 SCF Done:  E(RHF) =  -1613.81483854     A.U. after   10 cycles
 SCF Done:  E(RHF) =  -1613.81483917     A.U. after   10 cycles
 Optimization completed.
    -- Stationary point found.

                         Standard orientation:
 ---------------------------------------------------------------------
 Center     Atomic      Atomic             Coordinates (Angstroms)
 Number     Number       Type             X           Y           Z
 ---------------------------------------------------------------------
      1          6           0        4.004507    0.327823    0.395620
      2          6           0        2.640718    0.763849    0.575499
      3          6           0        1.756217   -0.110855    0.035421
      4          6           0        2.294379    2.035411    1.303682
      5          6           0        4.111477   -0.844094   -0.261812
      6          1           0        4.854472    0.884189    0.761396
      7         16           0        2.565407   -1.472168   -0.702136
      8          1           0        5.011990   -1.379132   -0.511998
      9          6           0        0.283401   -0.032898   -0.002136
     10         16           0       -0.519635    1.162893   -1.011814
     11          6           0       -2.077564    0.576577   -0.516832
     12          6           0       -1.954133   -0.470615    0.348756
     13          6           0       -0.597757   -0.826574    0.646909
     14          1           0       -0.296996   -1.621030    1.310235
     15         16           0       -3.511206   -1.058937    0.846765
     16          6           0       -4.300238    0.142384   -0.141365
     17          6           0       -3.436369    0.938320   -0.805232
     18          1           0       -5.375880    0.183489   -0.170264
     19          1           0       -3.738524    1.735984   -1.464010
     20          1           0        2.775101    2.051645    2.282565
     21          1           0        1.222669    2.134310    1.447940
     22          1           0        2.646279    2.905970    0.748009
 ---------------------------------------------------------------------

 The electronic state is 1-A.
 Alpha  occ. eigenvalues --  -91.99051 -91.98984 -91.98376 -11.28818 -11.27807
 Alpha  occ. eigenvalues --  -11.27490 -11.27312 -11.27163 -11.27113 -11.25819
 Alpha  occ. eigenvalues --  -11.25787 -11.25496 -11.24303 -11.23564  -8.99234
 Alpha  occ. eigenvalues --   -8.99140  -8.98593  -6.67401  -6.67323  -6.67304
 Alpha  occ. eigenvalues --   -6.67222  -6.67116  -6.67015  -6.66757  -6.66664
 Alpha  occ. eigenvalues --   -6.66473  -1.21750  -1.18562  -1.12865  -1.03884
 Alpha  occ. eigenvalues --   -1.02568  -1.01603  -0.95731  -0.94688  -0.91826
 Alpha  occ. eigenvalues --   -0.82099  -0.77521  -0.76464  -0.72368  -0.70086
 Alpha  occ. eigenvalues --   -0.67357  -0.66878  -0.60627  -0.59110  -0.58835
 Alpha  occ. eigenvalues --   -0.56731  -0.56326  -0.54736  -0.53784  -0.52506
 Alpha  occ. eigenvalues --   -0.51661  -0.51056  -0.49524  -0.47362  -0.46310
 Alpha  occ. eigenvalues --   -0.46017  -0.38860  -0.34244  -0.33549  -0.32247
 Alpha  occ. eigenvalues --   -0.30008
 Alpha virt. eigenvalues --    0.03425   0.03482   0.04176   0.04669   0.04886
 Alpha virt. eigenvalues --    0.05824   0.06030   0.07374   0.08164   0.08671
 Alpha virt. eigenvalues --    0.08742   0.09130   0.10274   0.10501   0.11188

 Mulliken charges:
               1
     1  C    0.636870
     2  C   -1.079575
     3  C    0.874345
     4  C    0.478214
     5  C   -0.270568
     6  H   -0.481385
     7  S    0.325774
     8  H   -0.358220
     9  C    0.320725
    10  S    0.342240
    11  C   -0.747249
    12  C   -0.321764
    13  C    0.241041
    14  H   -0.487269
    15  S    0.624853
    16  C   -0.073641
    17  C    0.654118
    18  H   -0.381756
    19  H   -0.325288
    20  H    0.030868
    21  H   -0.108482
    22  H    0.106150
 Sum of Mulliken charges =  -0.00000

 Dipole moment (field-independent basis, Debye):
    X=              0.4241    Y=              1.0652    Z=              0.6612  Tot=              1.3235
 Quadrupole moment (field-independent basis, Debye-Ang):
   XX=            -86.6728   YY=           -103.0131   ZZ=           -107.0133
   XY=             -1.8202   XZ=              4.3812   YZ=             -1.2287

 1\1\GINC-CX3-12-18\FOpt\RHF\Aug-CC-pVDZ\C11H8S3\NS5018\26-Oct-2021\0\\
 # opt=modredundant hf/aug-cc-pvdz\\pBTTT_70.pdb\\0,1\C,-4.2178221979,-
 1.3094147855,-0.2266411126\C,-2.8451743198,-1.0464684051,-0.5859342721
 \C,-2.0911642532,-2.1732645832,-0.5553928533\C,-2.3641462487,0.3294191
 717,-0.9635825462\C,-4.4597821759,-2.6044660126,0.058569221\H,-4.97724
 92723,-0.5424296149,-0.1987058851\S,-3.034468482,-3.5668518088,-0.0863
 045517\H,-5.39677832,-3.0521104919,0.3439383169\C,-0.6534694406,-2.332
 6830548,-0.8457265304\S,0.554767777,-1.6804133685,0.2537909442\C,1.836

 Normal termination of Gaussian 16 at Tue Oct 26 01:43:34 2021.
