 Gaussian 16, Revision C.01,
 Gaussian 16:  ES64L-G16RevC.01  3-Jul-2019

 ---------------------------------
 # opt=modredundant hf/aug-cc-pvdz
 ---------------------------------

 ------------
 pBTTT_20.pdb
 ------------
 Symbolic Z-matrix:
 Charge =  0 Multiplicity = 1

 SCF Done:  E(RHF) =  -1613.75278110     A.U. after   18 cycles
 SCF Done:  E(RHF) =  -1613.79401908     A.U. after   16 cycles
 SCF Done:  E(RHF) =  -1613.80789563     A.U. after   16 cycles
 SCF Done:  E(RHF) =  -1613.81079340     A.U. after   16 cycles
 SCF Done:  E(RHF) =  -1613.81152514     A.U. after   15 cycles
 SCF Done:  E(RHF) =  -1613.81211249     A.U. after   14 cycles
 SCF Done:  E(RHF) =  -1613.81226852     A.U. after   14 cycles
 SCF Done:  E(RHF) =  -1613.81227249     A.U. after   14 cycles
 SCF Done:  E(RHF) =  -1613.81233833     A.U. after   13 cycles
 SCF Done:  E(RHF) =  -1613.81238333     A.U. after   12 cycles
 SCF Done:  E(RHF) =  -1613.81240615     A.U. after   12 cycles
 SCF Done:  E(RHF) =  -1613.81241343     A.U. after   12 cycles
 SCF Done:  E(RHF) =  -1613.81241513     A.U. after   11 cycles
 SCF Done:  E(RHF) =  -1613.81241571     A.U. after   10 cycles
 SCF Done:  E(RHF) =  -1613.81241575     A.U. after    9 cycles
 Optimization completed.
    -- Stationary point found.

                         Standard orientation:
 ---------------------------------------------------------------------
 Center     Atomic      Atomic             Coordinates (Angstroms)
 Number     Number       Type             X           Y           Z
 ---------------------------------------------------------------------
      1          6           0        4.039466    0.258093    0.101558
      2          6           0        2.716314    0.824754    0.184862
      3          6           0        1.748631   -0.121368    0.029345
      4          6           0        2.518112    2.300218    0.435082
      5          6           0        4.050764   -1.070901   -0.117029
      6          1           0        4.935655    0.849159    0.212936
      7         16           0        2.451664   -1.701097   -0.245558
      8          1           0        4.904501   -1.720183   -0.209719
      9          6           0        0.283922   -0.006876    0.016926
     10         16           0       -0.535750    1.522725   -0.294049
     11          6           0       -2.088209    0.760969   -0.157418
     12          6           0       -1.958037   -0.569600    0.108478
     13          6           0       -0.603439   -1.014896    0.213874
     14          1           0       -0.312789   -2.028963    0.432737
     15         16           0       -3.511866   -1.332392    0.256829
     16          6           0       -4.307811    0.190062   -0.048975
     17          6           0       -3.447448    1.210270   -0.249060
     18          1           0       -5.383565    0.233842   -0.063286
     19          1           0       -3.753393    2.223552   -0.452258
     20          1           0        3.442239    2.737019    0.808998
     21          1           0        1.738380    2.485341    1.170306
     22          1           0        2.250604    2.828114   -0.481110
 ---------------------------------------------------------------------

 The electronic state is 1-A.
 Alpha  occ. eigenvalues --  -91.99111 -91.99016 -91.98469 -11.29266 -11.27998
 Alpha  occ. eigenvalues --  -11.27740 -11.27296 -11.27177 -11.27131 -11.25835
 Alpha  occ. eigenvalues --  -11.25678 -11.25539 -11.24448 -11.23809  -8.99296
 Alpha  occ. eigenvalues --   -8.99197  -8.98725  -6.67462  -6.67383  -6.67364
 Alpha  occ. eigenvalues --   -6.67286  -6.67173  -6.67080  -6.66896  -6.66802
 Alpha  occ. eigenvalues --   -6.66608  -1.21835  -1.18702  -1.12901  -1.04104
 Alpha  occ. eigenvalues --   -1.02806  -1.01781  -0.95560  -0.94770  -0.92177
 Alpha  occ. eigenvalues --   -0.82317  -0.77951  -0.76674  -0.71694  -0.70436
 Alpha  occ. eigenvalues --   -0.67611  -0.66969  -0.60497  -0.59252  -0.59049
 Alpha  occ. eigenvalues --   -0.56798  -0.56561  -0.54957  -0.53915  -0.52366
 Alpha  occ. eigenvalues --   -0.51800  -0.51678  -0.49660  -0.47162  -0.46762
 Alpha  occ. eigenvalues --   -0.45884  -0.39318  -0.35531  -0.34340  -0.32331
 Alpha  occ. eigenvalues --   -0.27901
 Alpha virt. eigenvalues --    0.03431   0.03468   0.04039   0.04777   0.04987
 Alpha virt. eigenvalues --    0.05866   0.06101   0.06595   0.07498   0.08505
 Alpha virt. eigenvalues --    0.09566   0.10010   0.10293   0.10481   0.10993

 Mulliken charges:
               1
     1  C    0.515227
     2  C   -0.655710
     3  C    0.650679
     4  C    0.584569
     5  C   -0.343884
     6  H   -0.520520
     7  S    0.490885
     8  H   -0.377489
     9  C   -0.035902
    10  S    0.517712
    11  C   -0.782252
    12  C   -0.189183
    13  C    0.414011
    14  H   -0.538659
    15  S    0.528937
    16  C   -0.143969
    17  C    0.498352
    18  H   -0.388172
    19  H   -0.329447
    20  H   -0.216938
    21  H    0.154956
    22  H    0.166797
 Sum of Mulliken charges =  -0.00000

 Dipole moment (field-independent basis, Debye):
    X=              0.6129    Y=              1.2385    Z=              0.2185  Tot=              1.3990
 Quadrupole moment (field-independent basis, Debye-Ang):
   XX=            -86.0049   YY=            -98.9572   ZZ=           -111.2574
   XY=             -2.3817   XZ=              1.3694   YZ=             -0.4326

 1\1\GINC-CX3-12-20\FOpt\RHF\Aug-CC-pVDZ\C11H8S3\NS5018\26-Oct-2021\0\\
 # opt=modredundant hf/aug-cc-pvdz\\pBTTT_20.pdb\\0,1\C,-4.2431724826,-
 1.4172120875,-0.3120808656\C,-2.8915664247,-1.0183808612,-0.6168248435
 \C,-2.0248222789,-2.0668412493,-0.5445286049\C,-2.5671201885,0.4103862
 026,-0.9804836416\C,-4.372132412,-2.724608572,-0.0150675583\H,-5.07328
 68417,-0.7276338703,-0.3297340662\S,-2.8533486315,-3.537062993,-0.0783
 0558\H,-5.2705315755,-3.2616119583,0.2369898357\C,-0.571076135,-2.1294
 623936,-0.7478436394\S,0.453402014,-0.6980672578,-0.6488530686\C,1.872

 Normal termination of Gaussian 16 at Tue Oct 26 00:56:05 2021.
