 Gaussian 16, Revision C.01,
 Gaussian 16:  ES64L-G16RevC.01  3-Jul-2019

 ---------------------------------
 # opt=modredundant hf/aug-cc-pvdz
 ---------------------------------

 ------------
 pBTTT_95.pdb
 ------------
 Symbolic Z-matrix:
 Charge =  0 Multiplicity = 1

 SCF Done:  E(RHF) =  -1613.75080945     A.U. after   18 cycles
 SCF Done:  E(RHF) =  -1613.79400533     A.U. after   16 cycles
 SCF Done:  E(RHF) =  -1613.80917359     A.U. after   15 cycles
 SCF Done:  E(RHF) =  -1613.81216978     A.U. after   16 cycles
 SCF Done:  E(RHF) =  -1613.81253499     A.U. after   14 cycles
 SCF Done:  E(RHF) =  -1613.81330306     A.U. after   13 cycles
 SCF Done:  E(RHF) =  -1613.81333550     A.U. after   13 cycles
 SCF Done:  E(RHF) =  -1613.81337165     A.U. after   12 cycles
 SCF Done:  E(RHF) =  -1613.81339501     A.U. after   11 cycles
 SCF Done:  E(RHF) =  -1613.81341451     A.U. after   12 cycles
 SCF Done:  E(RHF) =  -1613.81374649     A.U. after    9 cycles
 SCF Done:  E(RHF) =  -1613.81380135     A.U. after   13 cycles
 SCF Done:  E(RHF) =  -1613.81417077     A.U. after   12 cycles
 SCF Done:  E(RHF) =  -1613.81456766     A.U. after   14 cycles
 SCF Done:  E(RHF) =  -1613.81466911     A.U. after   12 cycles
 SCF Done:  E(RHF) =  -1613.81465717     A.U. after   12 cycles
 SCF Done:  E(RHF) =  -1613.81469100     A.U. after   12 cycles
 SCF Done:  E(RHF) =  -1613.81469480     A.U. after   11 cycles
 SCF Done:  E(RHF) =  -1613.81469514     A.U. after    9 cycles
 SCF Done:  E(RHF) =  -1613.81469514     A.U. after    7 cycles
 Optimization completed.
    -- Stationary point found.

                         Standard orientation:
 ---------------------------------------------------------------------
 Center     Atomic      Atomic             Coordinates (Angstroms)
 Number     Number       Type             X           Y           Z
 ---------------------------------------------------------------------
      1          6           0       -3.978480    0.646883    0.070294
      2          6           0       -2.594524    0.979069    0.311435
      3          6           0       -1.759564   -0.006705   -0.098683
      4          6           0       -2.177218    2.275997    0.951115
      5          6           0       -4.146920   -0.562695   -0.499700
      6          1           0       -4.796523    1.303989    0.324661
      7         16           0       -2.639192   -1.356529   -0.775777
      8          1           0       -5.073428   -1.036404   -0.777265
      9          6           0       -0.285194   -0.041399   -0.026750
     10         16           0        0.523326   -0.820210    1.327566
     11          6           0        2.077977   -0.428645    0.660397
     12          6           0        1.949893    0.248596   -0.516903
     13          6           0        0.591276    0.470525   -0.918396
     14          1           0        0.285212    0.978303   -1.818450
     15         16           0        3.504275    0.641636   -1.186580
     16          6           0        4.298746   -0.130090    0.160825
     17          6           0        3.438680   -0.652050    1.059793
     18          1           0        5.374565   -0.149543    0.202960
     19          1           0        3.744442   -1.167251    1.955666
     20          1           0       -2.644357    2.384366    1.930875
     21          1           0       -2.492637    3.122933    0.339799
     22          1           0       -1.099856    2.328333    1.077846
 ---------------------------------------------------------------------

 The electronic state is 1-A.
 Alpha  occ. eigenvalues --  -91.99064 -91.98941 -91.98320 -11.28756 -11.27816
 Alpha  occ. eigenvalues --  -11.27424 -11.27310 -11.27155 -11.27137 -11.25816
 Alpha  occ. eigenvalues --  -11.25814 -11.25525 -11.24276 -11.23586  -8.99245
 Alpha  occ. eigenvalues --   -8.99095  -8.98536  -6.67412  -6.67333  -6.67258
 Alpha  occ. eigenvalues --   -6.67176  -6.67127  -6.66970  -6.66700  -6.66608
 Alpha  occ. eigenvalues --   -6.66417  -1.21733  -1.18536  -1.12853  -1.03909
 Alpha  occ. eigenvalues --   -1.02490  -1.01572  -0.95805  -0.94627  -0.91801
 Alpha  occ. eigenvalues --   -0.82076  -0.77398  -0.76410  -0.72638  -0.69986
 Alpha  occ. eigenvalues --   -0.67340  -0.66866  -0.60700  -0.59051  -0.58818
 Alpha  occ. eigenvalues --   -0.56704  -0.56329  -0.54673  -0.53804  -0.52499
 Alpha  occ. eigenvalues --   -0.51705  -0.50956  -0.49480  -0.47381  -0.46241
 Alpha  occ. eigenvalues --   -0.46035  -0.38810  -0.34194  -0.33039  -0.32162
 Alpha  occ. eigenvalues --   -0.30632
 Alpha virt. eigenvalues --    0.03396   0.03489   0.04156   0.04655   0.04911
 Alpha virt. eigenvalues --    0.05633   0.06265   0.07341   0.08440   0.08650
 Alpha virt. eigenvalues --    0.08857   0.08955   0.10147   0.10348   0.10922

 Mulliken charges:
               1
     1  C    0.769308
     2  C   -1.258314
     3  C    0.946581
     4  C    0.479582
     5  C   -0.323885
     6  H   -0.484887
     7  S    0.301348
     8  H   -0.358975
     9  C    0.465179
    10  S    0.358012
    11  C   -0.766213
    12  C   -0.400186
    13  C    0.167299
    14  H   -0.479930
    15  S    0.633477
    16  C   -0.044575
    17  C    0.692694
    18  H   -0.381094
    19  H   -0.328263
    20  H    0.056221
    21  H    0.071777
    22  H   -0.115155
 Sum of Mulliken charges =  -0.00000

 Dipole moment (field-independent basis, Debye):
    X=             -0.3679    Y=              1.1657    Z=              0.5081  Tot=              1.3238
 Quadrupole moment (field-independent basis, Debye-Ang):
   XX=            -86.8629   YY=           -105.0076   ZZ=           -104.9806
   XY=             -4.6278   XZ=              3.3911   YZ=             -1.1371

 Normal termination of Gaussian 16 at Tue Oct 26 02:06:31 2021.
