 Gaussian 16, Revision C.01,
 Gaussian 16:  ES64L-G16RevC.01  3-Jul-2019

 ---------------------------------
 # opt=modredundant hf/aug-cc-pvdz
 ---------------------------------

 --------------
 pBTTT_-125.pdb
 --------------
 Symbolic Z-matrix:
 Charge =  0 Multiplicity = 1

 SCF Done:  E(RHF) =  -1613.75082767     A.U. after   18 cycles
 SCF Done:  E(RHF) =  -1613.79354179     A.U. after   15 cycles
 SCF Done:  E(RHF) =  -1613.80872435     A.U. after   15 cycles
 SCF Done:  E(RHF) =  -1613.81164233     A.U. after   16 cycles
 SCF Done:  E(RHF) =  -1613.81222816     A.U. after   14 cycles
 SCF Done:  E(RHF) =  -1613.81311468     A.U. after   14 cycles
 SCF Done:  E(RHF) =  -1613.81309972     A.U. after   14 cycles
 SCF Done:  E(RHF) =  -1613.81343056     A.U. after   13 cycles
 SCF Done:  E(RHF) =  -1613.81376509     A.U. after   14 cycles
 SCF Done:  E(RHF) =  -1613.81365729     A.U. after   15 cycles
 SCF Done:  E(RHF) =  -1613.81438548     A.U. after   13 cycles
 SCF Done:  E(RHF) =  -1613.81458099     A.U. after   13 cycles
 SCF Done:  E(RHF) =  -1613.81456190     A.U. after   13 cycles
 SCF Done:  E(RHF) =  -1613.81462618     A.U. after   13 cycles
 SCF Done:  E(RHF) =  -1613.81463509     A.U. after   11 cycles
 SCF Done:  E(RHF) =  -1613.81463529     A.U. after    9 cycles
 Optimization completed.
    -- Stationary point found.

                         Standard orientation:
 ---------------------------------------------------------------------
 Center     Atomic      Atomic             Coordinates (Angstroms)
 Number     Number       Type             X           Y           Z
 ---------------------------------------------------------------------
      1          6           0        3.961070    0.727072    0.126141
      2          6           0        2.570321    1.029895    0.363363
      3          6           0        1.757092    0.025824   -0.053678
      4          6           0        2.136243    2.313293    1.021024
      5          6           0        4.160033   -0.478350   -0.442343
      6          1           0        4.763632    1.398521    0.392151
      7         16           0        2.671449   -1.301930   -0.731824
      8          1           0        5.098159   -0.935204   -0.708390
      9          6           0        0.287587   -0.037576   -0.012259
     10         16           0       -0.527015   -1.380645    0.782320
     11          6           0       -2.079031   -0.714008    0.379689
     12          6           0       -1.946912    0.457228   -0.306854
     13          6           0       -0.588045    0.846796   -0.542267
     14          1           0       -0.283024    1.722916   -1.090279
     15         16           0       -3.499225    1.124415   -0.712157
     16          6           0       -4.298148   -0.215485    0.068715
     17          6           0       -3.440467   -1.110828    0.600933
     18          1           0       -5.374042   -0.256560    0.084518
     19          1           0       -3.748770   -2.002775    1.121438
     20          1           0        2.759723    2.518438    1.891494
     21          1           0        1.100752    2.265674    1.345161
     22          1           0        2.241778    3.156384    0.335700
 ---------------------------------------------------------------------

 The electronic state is 1-A.
 Alpha  occ. eigenvalues --  -91.99069 -91.98969 -91.98383 -11.28899 -11.27790
 Alpha  occ. eigenvalues --  -11.27631 -11.27312 -11.27168 -11.27159 -11.25817
 Alpha  occ. eigenvalues --  -11.25771 -11.25580 -11.24355 -11.23732  -8.99249
 Alpha  occ. eigenvalues --   -8.99131  -8.98612  -6.67416  -6.67338  -6.67295
 Alpha  occ. eigenvalues --   -6.67214  -6.67131  -6.67006  -6.66777  -6.66684
 Alpha  occ. eigenvalues --   -6.66493  -1.21769  -1.18606  -1.12875  -1.04048
 Alpha  occ. eigenvalues --   -1.02443  -1.01742  -0.95868  -0.94584  -0.91939
 Alpha  occ. eigenvalues --   -0.82192  -0.77347  -0.76608  -0.72757  -0.69990
 Alpha  occ. eigenvalues --   -0.67400  -0.66874  -0.60743  -0.59106  -0.58893
 Alpha  occ. eigenvalues --   -0.56695  -0.56338  -0.54654  -0.53957  -0.52548
 Alpha  occ. eigenvalues --   -0.51860  -0.51042  -0.49478  -0.47351  -0.46414
 Alpha  occ. eigenvalues --   -0.46132  -0.38937  -0.34490  -0.34048  -0.32232
 Alpha  occ. eigenvalues --   -0.29345
 Alpha virt. eigenvalues --    0.03391   0.03521   0.04081   0.04780   0.04937
 Alpha virt. eigenvalues --    0.05500   0.06608   0.07351   0.07921   0.08476
 Alpha virt. eigenvalues --    0.08785   0.09284   0.10249   0.10690   0.11055

 Mulliken charges:
               1
     1  C    0.634298
     2  C   -1.006292
     3  C    0.812500
     4  C    0.505046
     5  C   -0.294125
     6  H   -0.480589
     7  S    0.354899
     8  H   -0.359426
     9  C    0.310247
    10  S    0.391365
    11  C   -0.759861
    12  C   -0.334791
    13  C    0.256597
    14  H   -0.477024
    15  S    0.615136
    16  C   -0.059924
    17  C    0.602501
    18  H   -0.379690
    19  H   -0.328766
    20  H   -0.028796
    21  H   -0.081285
    22  H    0.107981
 Sum of Mulliken charges =  -0.00000

 Dipole moment (field-independent basis, Debye):
    X=              0.3824    Y=              1.1127    Z=              0.5055  Tot=              1.2806
 Quadrupole moment (field-independent basis, Debye-Ang):
   XX=            -86.8254   YY=           -101.3412   ZZ=           -108.6057
   XY=              6.3797   XZ=             -1.6651   YZ=             -1.0743

 Normal termination of Gaussian 16 at Mon Oct 25 23:49:59 2021.
