 Gaussian 16, Revision C.01,
 Gaussian 16:  ES64L-G16RevC.01  3-Jul-2019

 ---------------------------------
 # opt=modredundant hf/aug-cc-pvdz
 ---------------------------------

 --------------
 pBTTT_-105.pdb
 --------------
 Symbolic Z-matrix:
 Charge =  0 Multiplicity = 1

 SCF Done:  E(RHF) =  -1613.75009983     A.U. after   18 cycles
 SCF Done:  E(RHF) =  -1613.79344099     A.U. after   16 cycles
 SCF Done:  E(RHF) =  -1613.80892522     A.U. after   15 cycles
 SCF Done:  E(RHF) =  -1613.81186306     A.U. after   16 cycles
 SCF Done:  E(RHF) =  -1613.81232391     A.U. after   14 cycles
 SCF Done:  E(RHF) =  -1613.81317248     A.U. after   14 cycles
 SCF Done:  E(RHF) =  -1613.81309837     A.U. after   13 cycles
 SCF Done:  E(RHF) =  -1613.81328327     A.U. after   13 cycles
 SCF Done:  E(RHF) =  -1613.81330212     A.U. after   12 cycles
 SCF Done:  E(RHF) =  -1613.81334722     A.U. after   12 cycles
 SCF Done:  E(RHF) =  -1613.81348857     A.U. after   13 cycles
 SCF Done:  E(RHF) =  -1613.81367418     A.U. after   12 cycles
 SCF Done:  E(RHF) =  -1613.81388194     A.U. after   14 cycles
 SCF Done:  E(RHF) =  -1613.81458023     A.U. after   14 cycles
 SCF Done:  E(RHF) =  -1613.81432128     A.U. after   14 cycles
 SCF Done:  E(RHF) =  -1613.81467510     A.U. after   13 cycles
 SCF Done:  E(RHF) =  -1613.81467556     A.U. after   11 cycles
 SCF Done:  E(RHF) =  -1613.81467966     A.U. after   11 cycles
 SCF Done:  E(RHF) =  -1613.81467972     A.U. after    9 cycles
 SCF Done:  E(RHF) =  -1613.81467973     A.U. after    7 cycles
 Optimization completed.
    -- Stationary point found.

                         Standard orientation:
 ---------------------------------------------------------------------
 Center     Atomic      Atomic             Coordinates (Angstroms)
 Number     Number       Type             X           Y           Z
 ---------------------------------------------------------------------
      1          6           0        3.969803    0.671694    0.161396
      2          6           0        2.581122    0.961608    0.428624
      3          6           0        1.759158    0.015377   -0.088531
      4          6           0        2.150349    2.176366    1.206243
      5          6           0        4.155310   -0.470402   -0.529385
      6          1           0        4.779037    1.306411    0.489999
      7         16           0        2.658312   -1.247126   -0.897047
      8          1           0        5.088635   -0.903887   -0.846876
      9          6           0        0.285979   -0.041412   -0.032275
     10         16           0       -0.524337   -1.163653    1.053714
     11          6           0       -2.078087   -0.601641    0.519550
     12          6           0       -1.948754    0.377646   -0.421336
     13          6           0       -0.589887    0.700195   -0.745699
     14          1           0       -0.283349    1.434986   -1.472082
     15         16           0       -3.502492    0.940595   -0.958063
     16          6           0       -4.298377   -0.177612    0.118373
     17          6           0       -3.439115   -0.929342    0.837319
     18          1           0       -5.374237   -0.208675    0.151419
     19          1           0       -3.745716   -1.674666    1.552865
     20          1           0        2.663872    2.211609    2.167821
     21          1           0        1.079933    2.173131    1.389285
     22          1           0        2.403099    3.089163    0.664244
 ---------------------------------------------------------------------

 The electronic state is 1-A.
 Alpha  occ. eigenvalues --  -91.99066 -91.98946 -91.98324 -11.28781 -11.27810
 Alpha  occ. eigenvalues --  -11.27471 -11.27308 -11.27157 -11.27148 -11.25813
 Alpha  occ. eigenvalues --  -11.25804 -11.25548 -11.24290 -11.23616  -8.99246
 Alpha  occ. eigenvalues --   -8.99100  -8.98543  -6.67413  -6.67335  -6.67264
 Alpha  occ. eigenvalues --   -6.67182  -6.67129  -6.66975  -6.66708  -6.66616
 Alpha  occ. eigenvalues --   -6.66424  -1.21738  -1.18548  -1.12856  -1.03942
 Alpha  occ. eigenvalues --   -1.02468  -1.01611  -0.95828  -0.94609  -0.91830
 Alpha  occ. eigenvalues --   -0.82101  -0.77370  -0.76447  -0.72702  -0.69971
 Alpha  occ. eigenvalues --   -0.67353  -0.66865  -0.60724  -0.59052  -0.58829
 Alpha  occ. eigenvalues --   -0.56697  -0.56334  -0.54660  -0.53830  -0.52519
 Alpha  occ. eigenvalues --   -0.51743  -0.50961  -0.49478  -0.47371  -0.46242
 Alpha  occ. eigenvalues --   -0.46095  -0.38829  -0.34216  -0.33374  -0.32155
 Alpha  occ. eigenvalues --   -0.30304
 Alpha virt. eigenvalues --    0.03394   0.03501   0.04132   0.04689   0.04921
 Alpha virt. eigenvalues --    0.05576   0.06382   0.07341   0.08445   0.08523
 Alpha virt. eigenvalues --    0.08818   0.09013   0.10233   0.10444   0.10799

 Mulliken charges:
               1
     1  C    0.744352
     2  C   -1.232085
     3  C    0.936418
     4  C    0.490338
     5  C   -0.319174
     6  H   -0.483054
     7  S    0.320112
     8  H   -0.359227
     9  C    0.427390
    10  S    0.376984
    11  C   -0.774751
    12  C   -0.381899
    13  C    0.181382
    14  H   -0.478075
    15  S    0.630982
    16  C   -0.047734
    17  C    0.670513
    18  H   -0.379887
    19  H   -0.329267
    20  H    0.034356
    21  H   -0.115431
    22  H    0.087758
 Sum of Mulliken charges =  -0.00000

 Dipole moment (field-independent basis, Debye):
    X=              0.3638    Y=              1.0953    Z=              0.6380  Tot=              1.3187
 Quadrupole moment (field-independent basis, Debye-Ang):
   XX=            -86.8857   YY=           -103.4743   ZZ=           -106.4994
   XY=              5.6028   XZ=             -2.3203   YZ=             -1.2724

 Normal termination of Gaussian 16 at Tue Oct 26 00:15:41 2021.
