 Gaussian 16, Revision C.01,
 Gaussian 16:  ES64L-G16RevC.01  3-Jul-2019

 ---------------------------------
 # opt=modredundant hf/aug-cc-pvdz
 ---------------------------------

 -------------
 pBTTT_140.pdb
 -------------
 Symbolic Z-matrix:
 Charge =  0 Multiplicity = 1

 SCF Done:  E(RHF) =  -1613.75275542     A.U. after   18 cycles
 SCF Done:  E(RHF) =  -1613.79467525     A.U. after   16 cycles
 SCF Done:  E(RHF) =  -1613.80868153     A.U. after   15 cycles
 SCF Done:  E(RHF) =  -1613.81169294     A.U. after   15 cycles
 SCF Done:  E(RHF) =  -1613.81231046     A.U. after   14 cycles
 SCF Done:  E(RHF) =  -1613.81322542     A.U. after   14 cycles
 SCF Done:  E(RHF) =  -1613.81338227     A.U. after   14 cycles
 SCF Done:  E(RHF) =  -1613.81360475     A.U. after   12 cycles
 SCF Done:  E(RHF) =  -1613.81386226     A.U. after   13 cycles
 SCF Done:  E(RHF) =  -1613.81398586     A.U. after   13 cycles
 SCF Done:  E(RHF) =  -1613.81405471     A.U. after   12 cycles
 SCF Done:  E(RHF) =  -1613.81406977     A.U. after   12 cycles
 SCF Done:  E(RHF) =  -1613.81407264     A.U. after   11 cycles
 SCF Done:  E(RHF) =  -1613.81407310     A.U. after   10 cycles
 SCF Done:  E(RHF) =  -1613.81407317     A.U. after    9 cycles
 Optimization completed.
    -- Stationary point found.

                         Standard orientation:
 ---------------------------------------------------------------------
 Center     Atomic      Atomic             Coordinates (Angstroms)
 Number     Number       Type             X           Y           Z
 ---------------------------------------------------------------------
      1          6           0       -3.959906    0.751533    0.068826
      2          6           0       -2.571619    1.074664    0.286451
      3          6           0       -1.756071    0.029762   -0.016319
      4          6           0       -2.144542    2.418030    0.818326
      5          6           0       -4.158501   -0.503757   -0.379392
      6          1           0       -4.762598    1.447245    0.261899
      7         16           0       -2.670021   -1.353433   -0.574107
      8          1           0       -5.095358   -0.984361   -0.604469
      9          6           0       -0.288627   -0.029362    0.022140
     10         16           0        0.529460   -1.470557    0.618654
     11          6           0        2.080348   -0.762057    0.291800
     12          6           0        1.946595    0.491114   -0.229302
     13          6           0        0.588336    0.913741   -0.396901
     14          1           0        0.287866    1.852076   -0.831486
     15         16           0        3.498032    1.201587   -0.556935
     16          6           0        4.298464   -0.233629    0.029053
     17          6           0        3.441554   -1.189294    0.445110
     18          1           0        5.374237   -0.279933    0.028263
     19          1           0        3.750620   -2.143956    0.838363
     20          1           0       -2.861280    2.771840    1.558904
     21          1           0       -2.103614    3.162295    0.020499
     22          1           0       -1.165604    2.368777    1.287493
 ---------------------------------------------------------------------

 The electronic state is 1-A.
 Alpha  occ. eigenvalues --  -91.99069 -91.98977 -91.98448 -11.29031 -11.27778
 Alpha  occ. eigenvalues --  -11.27770 -11.27322 -11.27170 -11.27158 -11.25824
 Alpha  occ. eigenvalues --  -11.25746 -11.25590 -11.24413 -11.23870  -8.99250
 Alpha  occ. eigenvalues --   -8.99151  -8.98684  -6.67417  -6.67339  -6.67316
 Alpha  occ. eigenvalues --   -6.67235  -6.67133  -6.67026  -6.66850  -6.66757
 Alpha  occ. eigenvalues --   -6.66565  -1.21802  -1.18663  -1.12892  -1.04154
 Alpha  occ. eigenvalues --   -1.02441  -1.01846  -0.95895  -0.94571  -0.92053
 Alpha  occ. eigenvalues --   -0.82266  -0.77357  -0.76760  -0.72755  -0.70055
 Alpha  occ. eigenvalues --   -0.67438  -0.66892  -0.60730  -0.59187  -0.58969
 Alpha  occ. eigenvalues --   -0.56706  -0.56337  -0.54688  -0.54096  -0.52532
 Alpha  occ. eigenvalues --   -0.51969  -0.51158  -0.49464  -0.47360  -0.46634
 Alpha  occ. eigenvalues --   -0.46048  -0.39066  -0.34975  -0.34183  -0.32290
 Alpha  occ. eigenvalues --   -0.28702
 Alpha virt. eigenvalues --    0.03383   0.03525   0.04048   0.04866   0.04945
 Alpha virt. eigenvalues --    0.05471   0.06734   0.07186   0.07684   0.08424
 Alpha virt. eigenvalues --    0.08745   0.09616   0.10126   0.10778   0.11104

 Mulliken charges:
               1
     1  C    0.542525
     2  C   -0.772331
     3  C    0.638133
     4  C    0.502625
     5  C   -0.278524
     6  H   -0.484852
     7  S    0.414460
     8  H   -0.360916
     9  C    0.190771
    10  S    0.419411
    11  C   -0.721097
    12  C   -0.341762
    13  C    0.348724
    14  H   -0.486240
    15  S    0.593187
    16  C   -0.073956
    17  C    0.563324
    18  H   -0.382685
    19  H   -0.328143
    20  H   -0.106280
    21  H    0.127420
    22  H   -0.003794
 Sum of Mulliken charges =  -0.00000

 Dipole moment (field-independent basis, Debye):
    X=             -0.4057    Y=              1.1240    Z=              0.3444  Tot=              1.2436
 Quadrupole moment (field-independent basis, Debye-Ang):
   XX=            -86.7249   YY=           -100.1094   ZZ=           -109.8225
   XY=             -6.7580   XZ=              1.3367   YZ=             -0.8033

 Normal termination of Gaussian 16 at Tue Oct 26 01:17:31 2021.
