 Gaussian 16, Revision C.01,
 Gaussian 16:  ES64L-G16RevC.01  3-Jul-2019

 ---------------------------------
 # opt=modredundant hf/aug-cc-pvdz
 ---------------------------------

 -------------
 pBTTT_-65.pdb
 -------------
 Symbolic Z-matrix:
 Charge =  0 Multiplicity = 1

 SCF Done:  E(RHF) =  -1613.75166514     A.U. after   17 cycles
 SCF Done:  E(RHF) =  -1613.79461298     A.U. after   15 cycles
 SCF Done:  E(RHF) =  -1613.80952760     A.U. after   15 cycles
 SCF Done:  E(RHF) =  -1613.81236104     A.U. after   16 cycles
 SCF Done:  E(RHF) =  -1613.81277270     A.U. after   15 cycles
 SCF Done:  E(RHF) =  -1613.81358087     A.U. after   14 cycles
 SCF Done:  E(RHF) =  -1613.81364985     A.U. after   13 cycles
 SCF Done:  E(RHF) =  -1613.81370808     A.U. after   14 cycles
 SCF Done:  E(RHF) =  -1613.81380899     A.U. after   12 cycles
 SCF Done:  E(RHF) =  -1613.81412762     A.U. after   14 cycles
 SCF Done:  E(RHF) =  -1613.81423621     A.U. after   14 cycles
 SCF Done:  E(RHF) =  -1613.81452902     A.U. after   14 cycles
 SCF Done:  E(RHF) =  -1613.81472390     A.U. after   13 cycles
 SCF Done:  E(RHF) =  -1613.81480415     A.U. after   14 cycles
 SCF Done:  E(RHF) =  -1613.81480652     A.U. after   11 cycles
 SCF Done:  E(RHF) =  -1613.81480730     A.U. after   10 cycles
 SCF Done:  E(RHF) =  -1613.81480747     A.U. after   10 cycles
 SCF Done:  E(RHF) =  -1613.81480753     A.U. after    9 cycles
 SCF Done:  E(RHF) =  -1613.81480754     A.U. after    7 cycles
 Optimization completed.
    -- Stationary point found.

                         Standard orientation:
 ---------------------------------------------------------------------
 Center     Atomic      Atomic             Coordinates (Angstroms)
 Number     Number       Type             X           Y           Z
 ---------------------------------------------------------------------
      1          6           0       -4.009590    0.317777    0.363836
      2          6           0       -2.650944    0.769030    0.544234
      3          6           0       -1.754958   -0.113635    0.035764
      4          6           0       -2.324277    2.060891    1.245941
      5          6           0       -4.102734   -0.872366   -0.262166
      6          1           0       -4.866593    0.877085    0.708090
      7         16           0       -2.548371   -1.499432   -0.673193
      8          1           0       -4.997082   -1.421134   -0.504502
      9          6           0       -0.283079   -0.030304    0.002566
     10         16           0        0.519530    1.222648   -0.935788
     11          6           0        2.077861    0.607836   -0.478120
     12          6           0        1.955029   -0.489325    0.323221
     13          6           0        0.599174   -0.861642    0.602017
     14          1           0        0.299611   -1.693221    1.218718
     15         16           0        3.512499   -1.106157    0.783973
     16          6           0        4.300773    0.152300   -0.130979
     17          6           0        3.436292    0.986536   -0.745234
     18          1           0        5.376387    0.195100   -0.158293
     19          1           0        3.737907    1.822248   -1.355303
     20          1           0       -2.845815    2.110460    2.202416
     21          1           0       -2.645177    2.916551    0.649699
     22          1           0       -1.259049    2.157370    1.432829
 ---------------------------------------------------------------------

 The electronic state is 1-A.
 Alpha  occ. eigenvalues --  -91.99049 -91.99000 -91.98390 -11.28850 -11.27802
 Alpha  occ. eigenvalues --  -11.27533 -11.27313 -11.27165 -11.27110 -11.25821
 Alpha  occ. eigenvalues --  -11.25770 -11.25500 -11.24314 -11.23569  -8.99231
 Alpha  occ. eigenvalues --   -8.99158  -8.98609  -6.67398  -6.67322  -6.67320
 Alpha  occ. eigenvalues --   -6.67240  -6.67113  -6.67033  -6.66773  -6.66680
 Alpha  occ. eigenvalues --   -6.66489  -1.21758  -1.18572  -1.12871  -1.03888
 Alpha  occ. eigenvalues --   -1.02589  -1.01626  -0.95711  -0.94702  -0.91846
 Alpha  occ. eigenvalues --   -0.82116  -0.77555  -0.76490  -0.72300  -0.70115
 Alpha  occ. eigenvalues --   -0.67369  -0.66883  -0.60613  -0.59123  -0.58845
 Alpha  occ. eigenvalues --   -0.56740  -0.56334  -0.54753  -0.53784  -0.52514
 Alpha  occ. eigenvalues --   -0.51659  -0.51095  -0.49542  -0.47348  -0.46337
 Alpha  occ. eigenvalues --   -0.46027  -0.38887  -0.34294  -0.33749  -0.32258
 Alpha  occ. eigenvalues --   -0.29758
 Alpha virt. eigenvalues --    0.03432   0.03483   0.04171   0.04692   0.04879
 Alpha virt. eigenvalues --    0.05863   0.05994   0.07389   0.08018   0.08651
 Alpha virt. eigenvalues --    0.08788   0.09189   0.10303   0.10557   0.11215

 Mulliken charges:
               1
     1  C    0.603807
     2  C   -1.040145
     3  C    0.873411
     4  C    0.489620
     5  C   -0.264439
     6  H   -0.481703
     7  S    0.338347
     8  H   -0.358011
     9  C    0.276125
    10  S    0.339000
    11  C   -0.738106
    12  C   -0.296556
    13  C    0.250619
    14  H   -0.488546
    15  S    0.618928
    16  C   -0.080838
    17  C    0.635553
    18  H   -0.381943
    19  H   -0.325254
    20  H    0.015545
    21  H    0.113323
    22  H   -0.098738
 Sum of Mulliken charges =  -0.00000

 Dipole moment (field-independent basis, Debye):
    X=             -0.4405    Y=              1.0809    Z=              0.6287  Tot=              1.3258
 Quadrupole moment (field-independent basis, Debye-Ang):
   XX=            -86.6165   YY=           -102.4552   ZZ=           -107.5813
   XY=              1.9683   XZ=             -4.0816   YZ=             -1.1933

 Normal termination of Gaussian 16 at Tue Oct 26 00:48:56 2021.
