 Gaussian 16, Revision C.01,
 Gaussian 16:  ES64L-G16RevC.01  3-Jul-2019

 ---------------------------------
 # opt=modredundant hf/aug-cc-pvdz
 ---------------------------------

 -------------
 pBTTT_120.pdb
 -------------
 Symbolic Z-matrix:
 Charge =  0 Multiplicity = 1

 SCF Done:  E(RHF) =  -1613.75186359     A.U. after   18 cycles
 SCF Done:  E(RHF) =  -1613.79458686     A.U. after   15 cycles
 SCF Done:  E(RHF) =  -1613.80921796     A.U. after   15 cycles
 SCF Done:  E(RHF) =  -1613.81212058     A.U. after   15 cycles
 SCF Done:  E(RHF) =  -1613.81255356     A.U. after   14 cycles
 SCF Done:  E(RHF) =  -1613.81335243     A.U. after   14 cycles
 SCF Done:  E(RHF) =  -1613.81343872     A.U. after   14 cycles
 SCF Done:  E(RHF) =  -1613.81360501     A.U. after   13 cycles
 SCF Done:  E(RHF) =  -1613.81383172     A.U. after   13 cycles
 SCF Done:  E(RHF) =  -1613.81394704     A.U. after   14 cycles
 SCF Done:  E(RHF) =  -1613.81427768     A.U. after   13 cycles
 SCF Done:  E(RHF) =  -1613.81451545     A.U. after   14 cycles
 SCF Done:  E(RHF) =  -1613.81466349     A.U. after   13 cycles
 SCF Done:  E(RHF) =  -1613.81468693     A.U. after   12 cycles
 SCF Done:  E(RHF) =  -1613.81468779     A.U. after   10 cycles
 SCF Done:  E(RHF) =  -1613.81468793     A.U. after    9 cycles
 SCF Done:  E(RHF) =  -1613.81468795     A.U. after    8 cycles
 Optimization completed.
    -- Stationary point found.

                         Standard orientation:
 ---------------------------------------------------------------------
 Center     Atomic      Atomic             Coordinates (Angstroms)
 Number     Number       Type             X           Y           Z
 ---------------------------------------------------------------------
      1          6           0       -3.962195    0.715707    0.142377
      2          6           0       -2.571043    1.012787    0.386071
      3          6           0       -1.757580    0.024280   -0.064616
      4          6           0       -2.135654    2.275006    1.082264
      5          6           0       -4.160125   -0.471135   -0.464189
      6          1           0       -4.765197    1.377566    0.430227
      7         16           0       -2.670823   -1.283600   -0.781372
      8          1           0       -5.098018   -0.920145   -0.744166
      9          6           0       -0.287157   -0.039709   -0.020588
     10         16           0        0.526146   -1.341291    0.840766
     11          6           0        2.078636   -0.693362    0.410329
     12          6           0        1.947324    0.442519   -0.333509
     13          6           0        0.588426    0.818966   -0.590375
     14          1           0        0.282630    1.669043   -1.177760
     15         16           0        3.500077    1.090804   -0.766772
     16          6           0        4.298122   -0.208027    0.081347
     17          6           0        3.439947   -1.077155    0.654572
     18          1           0        5.374019   -0.246821    0.102296
     19          1           0        3.747736   -1.942018    1.219213
     20          1           0       -2.729004    2.430826    1.983656
     21          1           0       -2.282954    3.143520    0.437768
     22          1           0       -1.087833    2.234155    1.364711
 ---------------------------------------------------------------------

 The electronic state is 1-A.
 Alpha  occ. eigenvalues --  -91.99068 -91.98964 -91.98364 -11.28862 -11.27795
 Alpha  occ. eigenvalues --  -11.27587 -11.27309 -11.27165 -11.27158 -11.25815
 Alpha  occ. eigenvalues --  -11.25779 -11.25575 -11.24336 -11.23695  -8.99248
 Alpha  occ. eigenvalues --   -8.99124  -8.98590  -6.67415  -6.67337  -6.67287
 Alpha  occ. eigenvalues --   -6.67206  -6.67131  -6.66998  -6.66755  -6.66662
 Alpha  occ. eigenvalues --   -6.66471  -1.21761  -1.18588  -1.12870  -1.04017
 Alpha  occ. eigenvalues --   -1.02447  -1.01707  -0.95859  -0.94589  -0.91906
 Alpha  occ. eigenvalues --   -0.82166  -0.77348  -0.76561  -0.72750  -0.69979
 Alpha  occ. eigenvalues --   -0.67387  -0.66870  -0.60742  -0.59087  -0.58872
 Alpha  occ. eigenvalues --   -0.56695  -0.56338  -0.54653  -0.53915  -0.52546
 Alpha  occ. eigenvalues --   -0.51825  -0.51012  -0.49480  -0.47354  -0.46349
 Alpha  occ. eigenvalues --   -0.46143  -0.38903  -0.34364  -0.33945  -0.32209
 Alpha  occ. eigenvalues --   -0.29582
 Alpha virt. eigenvalues --    0.03393   0.03517   0.04093   0.04755   0.04934
 Alpha virt. eigenvalues --    0.05516   0.06556   0.07352   0.08065   0.08487
 Alpha virt. eigenvalues --    0.08796   0.09196   0.10274   0.10656   0.10922

 Mulliken charges:
               1
     1  C    0.665074
     2  C   -1.076349
     3  C    0.856245
     4  C    0.502897
     5  C   -0.300835
     6  H   -0.480620
     7  S    0.342544
     8  H   -0.359595
     9  C    0.341891
    10  S    0.387711
    11  C   -0.767793
    12  C   -0.342012
    13  C    0.235859
    14  H   -0.477567
    15  S    0.620506
    16  C   -0.056981
    17  C    0.618271
    18  H   -0.379192
    19  H   -0.329108
    20  H   -0.008550
    21  H    0.104672
    22  H   -0.097071
 Sum of Mulliken charges =  -0.00000

 Dipole moment (field-independent basis, Debye):
    X=             -0.3758    Y=              1.1071    Z=              0.5527  Tot=              1.2932
 Quadrupole moment (field-independent basis, Debye-Ang):
   XX=            -86.8525   YY=           -101.8137   ZZ=           -108.1384
   XY=             -6.2224   XZ=              1.7873   YZ=             -1.1434

 Normal termination of Gaussian 16 at Tue Oct 26 01:45:54 2021.
