 Gaussian 16, Revision C.01,
 Gaussian 16:  ES64L-G16RevC.01  3-Jul-2019

 ---------------------------------
 # opt=modredundant hf/aug-cc-pvdz
 ---------------------------------

 ------------
 pBTTT_30.pdb
 ------------
 Symbolic Z-matrix:
 Charge =  0 Multiplicity = 1

 SCF Done:  E(RHF) =  -1613.75223424     A.U. after   17 cycles
 SCF Done:  E(RHF) =  -1613.79392826     A.U. after   16 cycles
 SCF Done:  E(RHF) =  -1613.80820556     A.U. after   15 cycles
 SCF Done:  E(RHF) =  -1613.81115909     A.U. after   16 cycles
 SCF Done:  E(RHF) =  -1613.81183004     A.U. after   15 cycles
 SCF Done:  E(RHF) =  -1613.81260089     A.U. after   13 cycles
 SCF Done:  E(RHF) =  -1613.81275069     A.U. after   13 cycles
 SCF Done:  E(RHF) =  -1613.81277981     A.U. after   14 cycles
 SCF Done:  E(RHF) =  -1613.81289423     A.U. after   13 cycles
 SCF Done:  E(RHF) =  -1613.81298546     A.U. after   13 cycles
 SCF Done:  E(RHF) =  -1613.81305279     A.U. after   12 cycles
 SCF Done:  E(RHF) =  -1613.81307156     A.U. after   13 cycles
 SCF Done:  E(RHF) =  -1613.81307588     A.U. after   12 cycles
 SCF Done:  E(RHF) =  -1613.81307648     A.U. after   10 cycles
 SCF Done:  E(RHF) =  -1613.81307653     A.U. after    9 cycles
 Optimization completed.
    -- Stationary point found.

                         Standard orientation:
 ---------------------------------------------------------------------
 Center     Atomic      Atomic             Coordinates (Angstroms)
 Number     Number       Type             X           Y           Z
 ---------------------------------------------------------------------
      1          6           0        4.035486    0.263974    0.152878
      2          6           0        2.708413    0.815114    0.272751
      3          6           0        1.748843   -0.121246    0.038215
      4          6           0        2.496174    2.262042    0.645206
      5          6           0        4.054880   -1.044357   -0.168215
      6          1           0        4.928125    0.848070    0.318016
      7         16           0        2.459867   -1.670565   -0.357413
      8          1           0        4.913339   -1.679977   -0.303233
      9          6           0        0.283312   -0.010342    0.019457
     10         16           0       -0.530452    1.482259   -0.441701
     11          6           0       -2.085197    0.740729   -0.231609
     12          6           0       -1.957879   -0.559126    0.159762
     13          6           0       -0.603508   -0.994850    0.309743
     14          1           0       -0.310500   -1.982191    0.626488
     15         16           0       -3.513306   -1.300861    0.380474
     16          6           0       -4.306004    0.187031   -0.068850
     17          6           0       -3.443739    1.181852   -0.365319
     18          1           0       -5.381682    0.231487   -0.087411
     19          1           0       -3.747757    2.171724   -0.664234
     20          1           0        3.354648    2.627238    1.206783
     21          1           0        1.609993    2.396686    1.259588
     22          1           0        2.391406    2.888709   -0.241865
 ---------------------------------------------------------------------

 The electronic state is 1-A.
 Alpha  occ. eigenvalues --  -91.99095 -91.99027 -91.98458 -11.29168 -11.27897
 Alpha  occ. eigenvalues --  -11.27760 -11.27306 -11.27157 -11.27140 -11.25838
 Alpha  occ. eigenvalues --  -11.25617 -11.25590 -11.24413 -11.23735  -8.99277
 Alpha  occ. eigenvalues --   -8.99209  -8.98703  -6.67443  -6.67375  -6.67364
 Alpha  occ. eigenvalues --   -6.67298  -6.67154  -6.67091  -6.66872  -6.66779
 Alpha  occ. eigenvalues --   -6.66585  -1.21826  -1.18669  -1.12903  -1.04029
 Alpha  occ. eigenvalues --   -1.02766  -1.01762  -0.95579  -0.94771  -0.92090
 Alpha  occ. eigenvalues --   -0.82275  -0.77861  -0.76649  -0.71810  -0.70362
 Alpha  occ. eigenvalues --   -0.67540  -0.66948  -0.60521  -0.59200  -0.58995
 Alpha  occ. eigenvalues --   -0.56801  -0.56501  -0.54900  -0.53868  -0.52442
 Alpha  occ. eigenvalues --   -0.51697  -0.51579  -0.49657  -0.47196  -0.46658
 Alpha  occ. eigenvalues --   -0.45968  -0.39208  -0.35306  -0.34260  -0.32319
 Alpha  occ. eigenvalues --   -0.28207
 Alpha virt. eigenvalues --    0.03444   0.03475   0.04078   0.04801   0.04920
 Alpha virt. eigenvalues --    0.05848   0.06084   0.06795   0.07555   0.08545
 Alpha virt. eigenvalues --    0.09401   0.09760   0.10368   0.10475   0.11037

 Mulliken charges:
               1
     1  C    0.518374
     2  C   -0.746654
     3  C    0.793778
     4  C    0.567608
     5  C   -0.330790
     6  H   -0.505931
     7  S    0.442340
     8  H   -0.367689
     9  C   -0.013906
    10  S    0.455150
    11  C   -0.722629
    12  C   -0.227420
    13  C    0.367980
    14  H   -0.526606
    15  S    0.553478
    16  C   -0.126732
    17  C    0.513295
    18  H   -0.385914
    19  H   -0.328540
    20  H   -0.173805
    21  H    0.100777
    22  H    0.143837
 Sum of Mulliken charges =  -0.00000

 Dipole moment (field-independent basis, Debye):
    X=              0.5662    Y=              1.2120    Z=              0.3192  Tot=              1.3753
 Quadrupole moment (field-independent basis, Debye-Ang):
   XX=            -86.1535   YY=            -99.4976   ZZ=           -110.6645
   XY=             -2.3777   XZ=              2.0046   YZ=             -0.6444

 Normal termination of Gaussian 16 at Tue Oct 26 01:20:50 2021.
