 Gaussian 16, Revision C.01,
 Gaussian 16:  ES64L-G16RevC.01  3-Jul-2019

 ---------------------------------
 # opt=modredundant hf/aug-cc-pvdz
 ---------------------------------

 ------------
 pBTTT_90.pdb
 ------------
 Symbolic Z-matrix:
 Charge =  0 Multiplicity = 1

 SCF Done:  E(RHF) =  -1613.75096660     A.U. after   18 cycles
 SCF Done:  E(RHF) =  -1613.79408611     A.U. after   15 cycles
 SCF Done:  E(RHF) =  -1613.80920597     A.U. after   15 cycles
 SCF Done:  E(RHF) =  -1613.81220557     A.U. after   16 cycles
 SCF Done:  E(RHF) =  -1613.81256697     A.U. after   14 cycles
 SCF Done:  E(RHF) =  -1613.81333787     A.U. after   13 cycles
 SCF Done:  E(RHF) =  -1613.81336606     A.U. after   13 cycles
 SCF Done:  E(RHF) =  -1613.81340061     A.U. after   12 cycles
 SCF Done:  E(RHF) =  -1613.81341789     A.U. after   12 cycles
 SCF Done:  E(RHF) =  -1613.81342168     A.U. after   11 cycles
 SCF Done:  E(RHF) =  -1613.78815105     A.U. after   17 cycles
 SCF Done:  E(RHF) =  -1613.81380716     A.U. after   14 cycles
 SCF Done:  E(RHF) =  -1613.81300351     A.U. after   15 cycles
 SCF Done:  E(RHF) =  -1613.81416376     A.U. after   13 cycles
 SCF Done:  E(RHF) =  -1613.81408215     A.U. after   13 cycles
 SCF Done:  E(RHF) =  -1613.81469030     A.U. after   13 cycles
 SCF Done:  E(RHF) =  -1613.81469907     A.U. after   13 cycles
 SCF Done:  E(RHF) =  -1613.81472354     A.U. after   11 cycles
 SCF Done:  E(RHF) =  -1613.81472561     A.U. after   10 cycles
 SCF Done:  E(RHF) =  -1613.81472568     A.U. after    9 cycles
 Optimization completed.
    -- Stationary point found.

                         Standard orientation:
 ---------------------------------------------------------------------
 Center     Atomic      Atomic             Coordinates (Angstroms)
 Number     Number       Type             X           Y           Z
 ---------------------------------------------------------------------
      1          6           0       -3.983391    0.587778   -0.218534
      2          6           0       -2.602470    1.002640   -0.149937
      3          6           0       -1.759423   -0.056588   -0.086013
      4          6           0       -2.194895    2.451509   -0.150938
      5          6           0       -4.141492   -0.750580   -0.200375
      6          1           0       -4.806762    1.283568   -0.278693
      7         16           0       -2.627177   -1.573251   -0.101134
      8          1           0       -5.063752   -1.305161   -0.242240
      9          6           0       -0.284824   -0.046075   -0.006618
     10         16           0        0.522554   -0.013272    1.555795
     11          6           0        2.077828   -0.023298    0.783458
     12          6           0        1.950618   -0.054421   -0.574476
     13          6           0        0.592294   -0.071001   -1.033913
     14          1           0        0.286923   -0.100292   -2.067126
     15         16           0        3.505476   -0.064083   -1.349907
     16          6           0        4.298961   -0.025017    0.202831
     17          6           0        3.438247   -0.005995    1.241635
     18          1           0        5.374751   -0.019264    0.249655
     19          1           0        3.743389    0.018026    2.274991
     20          1           0       -2.640393    2.973585    0.696983
     21          1           0       -2.540563    2.944456   -1.060791
     22          1           0       -1.115977    2.561069   -0.091564
 ---------------------------------------------------------------------

 The electronic state is 1-A.
 Alpha  occ. eigenvalues --  -91.99062 -91.98944 -91.98325 -11.28754 -11.27817
 Alpha  occ. eigenvalues --  -11.27415 -11.27311 -11.27155 -11.27132 -11.25818
 Alpha  occ. eigenvalues --  -11.25814 -11.25514 -11.24276 -11.23577  -8.99243
 Alpha  occ. eigenvalues --   -8.99097  -8.98540  -6.67410  -6.67332  -6.67260
 Alpha  occ. eigenvalues --   -6.67179  -6.67126  -6.66972  -6.66704  -6.66612
 Alpha  occ. eigenvalues --   -6.66421  -1.21732  -1.18534  -1.12853  -1.03897
 Alpha  occ. eigenvalues --   -1.02503  -1.01563  -0.95793  -0.94638  -0.91795
 Alpha  occ. eigenvalues --   -0.82070  -0.77417  -0.76405  -0.72596  -0.69999
 Alpha  occ. eigenvalues --   -0.67338  -0.66867  -0.60685  -0.59058  -0.58817
 Alpha  occ. eigenvalues --   -0.56708  -0.56326  -0.54683  -0.53797  -0.52492
 Alpha  occ. eigenvalues --   -0.51691  -0.50962  -0.49483  -0.47383  -0.46248
 Alpha  occ. eigenvalues --   -0.46016  -0.38808  -0.34190  -0.32979  -0.32183
 Alpha  occ. eigenvalues --   -0.30671
 Alpha virt. eigenvalues --    0.03398   0.03485   0.04165   0.04644   0.04906
 Alpha virt. eigenvalues --    0.05667   0.06210   0.07343   0.08426   0.08672
 Alpha virt. eigenvalues --    0.08852   0.08959   0.10140   0.10334   0.10998

 Mulliken charges:
               1
     1  C    0.763599
     2  C   -1.243932
     3  C    0.938691
     4  C    0.474421
     5  C   -0.319761
     6  H   -0.484977
     7  S    0.295639
     8  H   -0.358980
     9  C    0.462499
    10  S    0.349755
    11  C   -0.761954
    12  C   -0.399093
    13  C    0.175535
    14  H   -0.481963
    15  S    0.633893
    16  C   -0.046346
    17  C    0.695406
    18  H   -0.381475
    19  H   -0.327544
    20  H    0.066765
    21  H    0.065036
    22  H   -0.115214
 Sum of Mulliken charges =  -0.00000

 Dipole moment (field-independent basis, Debye):
    X=             -0.3741    Y=              1.2691    Z=             -0.0620  Tot=              1.3245
 Quadrupole moment (field-independent basis, Debye-Ang):
   XX=            -86.8399   YY=           -105.9421   ZZ=           -104.0530
   XY=             -2.2295   XZ=              5.0899   YZ=             -0.0302

 Normal termination of Gaussian 16 at Tue Oct 26 01:33:11 2021.
