 Gaussian 16, Revision C.01,
 Gaussian 16:  ES64L-G16RevC.01  3-Jul-2019

 ---------------------------------
 # opt=modredundant hf/aug-cc-pvdz
 ---------------------------------

 ------------
 pBTTT_25.pdb
 ------------
 Symbolic Z-matrix:
 Charge =  0 Multiplicity = 1

 SCF Done:  E(RHF) =  -1613.75247261     A.U. after   18 cycles
 SCF Done:  E(RHF) =  -1613.79394324     A.U. after   16 cycles
 SCF Done:  E(RHF) =  -1613.80803639     A.U. after   16 cycles
 SCF Done:  E(RHF) =  -1613.81096810     A.U. after   16 cycles
 SCF Done:  E(RHF) =  -1613.81166447     A.U. after   15 cycles
 SCF Done:  E(RHF) =  -1613.81235893     A.U. after   14 cycles
 SCF Done:  E(RHF) =  -1613.81250711     A.U. after   14 cycles
 SCF Done:  E(RHF) =  -1613.81252790     A.U. after   14 cycles
 SCF Done:  E(RHF) =  -1613.81260810     A.U. after   13 cycles
 SCF Done:  E(RHF) =  -1613.81267735     A.U. after   13 cycles
 SCF Done:  E(RHF) =  -1613.81271880     A.U. after   12 cycles
 SCF Done:  E(RHF) =  -1613.81272900     A.U. after   12 cycles
 SCF Done:  E(RHF) =  -1613.81273028     A.U. after   11 cycles
 SCF Done:  E(RHF) =  -1613.81273071     A.U. after   10 cycles
 SCF Done:  E(RHF) =  -1613.81273077     A.U. after    9 cycles
 Optimization completed.
    -- Stationary point found.

                         Standard orientation:
 ---------------------------------------------------------------------
 Center     Atomic      Atomic             Coordinates (Angstroms)
 Number     Number       Type             X           Y           Z
 ---------------------------------------------------------------------
      1          6           0        4.037650    0.260308    0.127060
      2          6           0        2.712890    0.820201    0.229453
      3          6           0        1.748676   -0.121332    0.034482
      4          6           0        2.508684    2.282782    0.541628
      5          6           0        4.052255   -1.059237   -0.143653
      6          1           0        4.932410    0.847935    0.265548
      7         16           0        2.454819   -1.687082   -0.302762
      8          1           0        4.907977   -1.702477   -0.258065
      9          6           0        0.283627   -0.008353    0.018710
     10         16           0       -0.533123    1.504419   -0.368306
     11          6           0       -2.086709    0.751768   -0.195014
     12          6           0       -1.957936   -0.564807    0.134503
     13          6           0       -0.603469   -1.005658    0.262989
     14          1           0       -0.311600   -2.007307    0.532032
     15         16           0       -3.512557   -1.317937    0.319384
     16          6           0       -4.306888    0.188765   -0.059278
     17          6           0       -3.445585    1.197396   -0.308062
     18          1           0       -5.382602    0.232818   -0.076018
     19          1           0       -3.750570    2.200001   -0.559846
     20          1           0        3.403929    2.687154    1.010821
     21          1           0        1.673798    2.439697    1.219994
     22          1           0        2.321258    2.860791   -0.364434
 ---------------------------------------------------------------------

 The electronic state is 1-A.
 Alpha  occ. eigenvalues --  -91.99103 -91.99022 -91.98464 -11.29218 -11.27948
 Alpha  occ. eigenvalues --  -11.27750 -11.27300 -11.27157 -11.27146 -11.25837
 Alpha  occ. eigenvalues --  -11.25646 -11.25563 -11.24431 -11.23773  -8.99288
 Alpha  occ. eigenvalues --   -8.99203  -8.98715  -6.67454  -6.67374  -6.67370
 Alpha  occ. eigenvalues --   -6.67292  -6.67164  -6.67085  -6.66885  -6.66791
 Alpha  occ. eigenvalues --   -6.66598  -1.21832  -1.18686  -1.12903  -1.04066
 Alpha  occ. eigenvalues --   -1.02788  -1.01773  -0.95568  -0.94772  -0.92135
 Alpha  occ. eigenvalues --   -0.82297  -0.77908  -0.76663  -0.71748  -0.70400
 Alpha  occ. eigenvalues --   -0.67576  -0.66959  -0.60508  -0.59224  -0.59023
 Alpha  occ. eigenvalues --   -0.56801  -0.56533  -0.54928  -0.53892  -0.52408
 Alpha  occ. eigenvalues --   -0.51726  -0.51651  -0.49661  -0.47177  -0.46714
 Alpha  occ. eigenvalues --   -0.45929  -0.39265  -0.35427  -0.34302  -0.32325
 Alpha  occ. eigenvalues --   -0.28043
 Alpha virt. eigenvalues --    0.03439   0.03471   0.04059   0.04788   0.04955
 Alpha virt. eigenvalues --    0.05854   0.06097   0.06682   0.07528   0.08525
 Alpha virt. eigenvalues --    0.09488   0.09901   0.10312   0.10470   0.11007

 Mulliken charges:
               1
     1  C    0.516870
     2  C   -0.694128
     3  C    0.724544
     4  C    0.574407
     5  C   -0.339666
     6  H   -0.512968
     7  S    0.463091
     8  H   -0.372187
     9  C   -0.025150
    10  S    0.488775
    11  C   -0.751590
    12  C   -0.209215
    13  C    0.388850
    14  H   -0.533331
    15  S    0.541550
    16  C   -0.134950
    17  C    0.503297
    18  H   -0.386898
    19  H   -0.328950
    20  H   -0.198447
    21  H    0.131180
    22  H    0.154915
 Sum of Mulliken charges =  -0.00000

 Dipole moment (field-independent basis, Debye):
    X=              0.5892    Y=              1.2261    Z=              0.2696  Tot=              1.3868
 Quadrupole moment (field-independent basis, Debye-Ang):
   XX=            -86.0796   YY=            -99.2065   ZZ=           -110.9815
   XY=             -2.3835   XZ=              1.6923   YZ=             -0.5396

 Normal termination of Gaussian 16 at Tue Oct 26 01:17:20 2021.
