 Gaussian 16, Revision C.01,
 Gaussian 16:  ES64L-G16RevC.01  3-Jul-2019

 ---------------------------------
 # opt=modredundant hf/aug-cc-pvdz
 ---------------------------------

 --------------
 pBTTT_-110.pdb
 --------------
 Symbolic Z-matrix:
 Charge =  0 Multiplicity = 1

 SCF Done:  E(RHF) =  -1613.75027255     A.U. after   18 cycles
 SCF Done:  E(RHF) =  -1613.79346427     A.U. after   15 cycles
 SCF Done:  E(RHF) =  -1613.80887245     A.U. after   15 cycles
 SCF Done:  E(RHF) =  -1613.81181694     A.U. after   16 cycles
 SCF Done:  E(RHF) =  -1613.81229599     A.U. after   14 cycles
 SCF Done:  E(RHF) =  -1613.81315403     A.U. after   14 cycles
 SCF Done:  E(RHF) =  -1613.81307557     A.U. after   13 cycles
 SCF Done:  E(RHF) =  -1613.81329059     A.U. after   13 cycles
 SCF Done:  E(RHF) =  -1613.81333825     A.U. after   12 cycles
 SCF Done:  E(RHF) =  -1613.81354952     A.U. after   13 cycles
 SCF Done:  E(RHF) =  -1613.81335325     A.U. after   15 cycles
 SCF Done:  E(RHF) =  -1613.81389671     A.U. after   13 cycles
 SCF Done:  E(RHF) =  -1613.81441926     A.U. after   14 cycles
 SCF Done:  E(RHF) =  -1613.81457626     A.U. after   14 cycles
 SCF Done:  E(RHF) =  -1613.81468649     A.U. after   13 cycles
 SCF Done:  E(RHF) =  -1613.81469042     A.U. after   11 cycles
 SCF Done:  E(RHF) =  -1613.81469082     A.U. after   10 cycles
 SCF Done:  E(RHF) =  -1613.81469102     A.U. after    9 cycles
 SCF Done:  E(RHF) =  -1613.81469103     A.U. after    8 cycles
 Optimization completed.
    -- Stationary point found.

                         Standard orientation:
 ---------------------------------------------------------------------
 Center     Atomic      Atomic             Coordinates (Angstroms)
 Number     Number       Type             X           Y           Z
 ---------------------------------------------------------------------
      1          6           0        3.966504    0.687643    0.162241
      2          6           0        2.576375    0.976765    0.422476
      3          6           0        1.758680    0.019466   -0.081889
      4          6           0        2.142274    2.201155    1.183218
      5          6           0        4.157898   -0.464650   -0.509626
      6          1           0        4.772744    1.329857    0.483573
      7         16           0        2.664554   -1.252244   -0.868748
      8          1           0        5.093502   -0.900400   -0.817081
      9          6           0        0.286364   -0.041608   -0.030721
     10         16           0       -0.524769   -1.237725    0.972981
     11          6           0       -2.078159   -0.639599    0.478426
     12          6           0       -1.948292    0.404667   -0.389662
     13          6           0       -0.589410    0.749075   -0.689981
     14          1           0       -0.282993    1.531932   -1.364282
     15         16           0       -3.501768    1.003346   -0.887025
     16          6           0       -4.298250   -0.189686    0.105454
     17          6           0       -3.439274   -0.990356    0.769856
     18          1           0       -5.374125   -0.223700    0.134809
     19          1           0       -3.746197   -1.785265    1.429739
     20          1           0        2.680599    2.268118    2.129318
     21          1           0        1.077440    2.181987    1.395345
     22          1           0        2.362494    3.106202    0.614513
 ---------------------------------------------------------------------

 The electronic state is 1-A.
 Alpha  occ. eigenvalues --  -91.99067 -91.98951 -91.98333 -11.28803 -11.27806
 Alpha  occ. eigenvalues --  -11.27505 -11.27307 -11.27160 -11.27153 -11.25814
 Alpha  occ. eigenvalues --  -11.25796 -11.25559 -11.24303 -11.23637  -8.99247
 Alpha  occ. eigenvalues --   -8.99107  -8.98555  -6.67414  -6.67336  -6.67270
 Alpha  occ. eigenvalues --   -6.67188  -6.67130  -6.66982  -6.66719  -6.66627
 Alpha  occ. eigenvalues --   -6.66436  -1.21744  -1.18558  -1.12860  -1.03964
 Alpha  occ. eigenvalues --   -1.02459  -1.01639  -0.95839  -0.94601  -0.91851
 Alpha  occ. eigenvalues --   -0.82120  -0.77360  -0.76478  -0.72724  -0.69969
 Alpha  occ. eigenvalues --   -0.67363  -0.66866  -0.60733  -0.59059  -0.58840
 Alpha  occ. eigenvalues --   -0.56695  -0.56336  -0.54656  -0.53851  -0.52531
 Alpha  occ. eigenvalues --   -0.51767  -0.50972  -0.49479  -0.47365  -0.46257
 Alpha  occ. eigenvalues --   -0.46125  -0.38848  -0.34241  -0.33584  -0.32168
 Alpha  occ. eigenvalues --   -0.30072
 Alpha virt. eigenvalues --    0.03394   0.03507   0.04119   0.04710   0.04926
 Alpha virt. eigenvalues --    0.05553   0.06442   0.07344   0.08352   0.08497
 Alpha virt. eigenvalues --    0.08810   0.09060   0.10269   0.10531   0.10776

 Mulliken charges:
               1
     1  C    0.721097
     2  C   -1.192933
     3  C    0.918512
     4  C    0.495300
     5  C   -0.313783
     6  H   -0.481986
     7  S    0.327697
     8  H   -0.359476
     9  C    0.399813
    10  S    0.382819
    11  C   -0.775835
    12  C   -0.367509
    13  C    0.197702
    14  H   -0.478185
    15  S    0.628488
    16  C   -0.050890
    17  C    0.653779
    18  H   -0.379355
    19  H   -0.329424
    20  H    0.022356
    21  H   -0.113343
    22  H    0.095156
 Sum of Mulliken charges =  -0.00000

 Dipole moment (field-independent basis, Debye):
    X=              0.3660    Y=              1.0963    Z=              0.6226  Tot=              1.3128
 Quadrupole moment (field-independent basis, Debye-Ang):
   XX=            -86.8832   YY=           -102.8731   ZZ=           -107.0928
   XY=              5.8464   XZ=             -2.0963   YZ=             -1.2451

 Normal termination of Gaussian 16 at Tue Oct 26 00:07:04 2021.
