 Gaussian 16, Revision C.01,
 Gaussian 16:  ES64L-G16RevC.01  3-Jul-2019

 ---------------------------------
 # opt=modredundant hf/aug-cc-pvdz
 ---------------------------------

 -------------
 pBTTT_100.pdb
 -------------
 Symbolic Z-matrix:
 Charge =  0 Multiplicity = 1

 SCF Done:  E(RHF) =  -1613.75106899     A.U. after   18 cycles
 SCF Done:  E(RHF) =  -1613.79414370     A.U. after   16 cycles
 SCF Done:  E(RHF) =  -1613.80919460     A.U. after   15 cycles
 SCF Done:  E(RHF) =  -1613.81216070     A.U. after   16 cycles
 SCF Done:  E(RHF) =  -1613.81252154     A.U. after   14 cycles
 SCF Done:  E(RHF) =  -1613.81328320     A.U. after   13 cycles
 SCF Done:  E(RHF) =  -1613.81331864     A.U. after   13 cycles
 SCF Done:  E(RHF) =  -1613.81336574     A.U. after   12 cycles
 SCF Done:  E(RHF) =  -1613.81339822     A.U. after   11 cycles
 SCF Done:  E(RHF) =  -1613.81350043     A.U. after   13 cycles
 SCF Done:  E(RHF) =  -1613.81358011     A.U. after   15 cycles
 SCF Done:  E(RHF) =  -1613.81387700     A.U. after   13 cycles
 SCF Done:  E(RHF) =  -1613.81422760     A.U. after   13 cycles
 SCF Done:  E(RHF) =  -1613.81453487     A.U. after   14 cycles
 SCF Done:  E(RHF) =  -1613.81458341     A.U. after   13 cycles
 SCF Done:  E(RHF) =  -1613.81467349     A.U. after   12 cycles
 SCF Done:  E(RHF) =  -1613.81467829     A.U. after   11 cycles
 SCF Done:  E(RHF) =  -1613.81467922     A.U. after   10 cycles
 SCF Done:  E(RHF) =  -1613.81467925     A.U. after    8 cycles
 Optimization completed.
    -- Stationary point found.

                         Standard orientation:
 ---------------------------------------------------------------------
 Center     Atomic      Atomic             Coordinates (Angstroms)
 Number     Number       Type             X           Y           Z
 ---------------------------------------------------------------------
      1          6           0       -3.973889    0.656708    0.143135
      2          6           0       -2.587263    0.955884    0.411048
      3          6           0       -1.759468    0.008748   -0.094179
      4          6           0       -2.162195    2.181515    1.174400
      5          6           0       -4.151637   -0.492467   -0.538003
      6          1           0       -4.787076    1.291126    0.462398
      7         16           0       -2.649748   -1.265538   -0.893496
      8          1           0       -5.081880   -0.932756   -0.855237
      9          6           0       -0.285587   -0.040742   -0.031432
     10         16           0        0.523930   -1.053319    1.157784
     11          6           0        2.078071   -0.545687    0.572730
     12          6           0        1.949276    0.336832   -0.459560
     13          6           0        0.590474    0.627270   -0.813675
     14          1           0        0.284019    1.289869   -1.606529
     15         16           0        3.503290    0.845801   -1.046997
     16          6           0        4.298578   -0.161260    0.134417
     17          6           0        3.438985   -0.839635    0.922595
     18          1           0        5.374422   -0.188425    0.171311
     19          1           0        3.745235   -1.511200    1.707913
     20          1           0       -2.651931    2.210300    2.148610
     21          1           0       -2.446778    3.086682    0.635550
     22          1           0       -1.087629    2.200315    1.330467
 ---------------------------------------------------------------------

 The electronic state is 1-A.
 Alpha  occ. eigenvalues --  -91.99065 -91.98942 -91.98319 -11.28765 -11.27814
 Alpha  occ. eigenvalues --  -11.27443 -11.27309 -11.27156 -11.27143 -11.25814
 Alpha  occ. eigenvalues --  -11.25811 -11.25536 -11.24282 -11.23599  -8.99246
 Alpha  occ. eigenvalues --   -8.99096  -8.98536  -6.67413  -6.67335  -6.67259
 Alpha  occ. eigenvalues --   -6.67178  -6.67128  -6.66971  -6.66701  -6.66609
 Alpha  occ. eigenvalues --   -6.66418  -1.21734  -1.18539  -1.12854  -1.03924
 Alpha  occ. eigenvalues --   -1.02479  -1.01587  -0.95817  -0.94617  -0.91813
 Alpha  occ. eigenvalues --   -0.82086  -0.77383  -0.76424  -0.72673  -0.69976
 Alpha  occ. eigenvalues --   -0.67346  -0.66865  -0.60713  -0.59049  -0.58822
 Alpha  occ. eigenvalues --   -0.56700  -0.56332  -0.54666  -0.53815  -0.52508
 Alpha  occ. eigenvalues --   -0.51722  -0.50955  -0.49478  -0.47377  -0.46238
 Alpha  occ. eigenvalues --   -0.46062  -0.38816  -0.34201  -0.33183  -0.32152
 Alpha  occ. eigenvalues --   -0.30500
 Alpha virt. eigenvalues --    0.03395   0.03494   0.04145   0.04670   0.04916
 Alpha virt. eigenvalues --    0.05603   0.06322   0.07340   0.08452   0.08598
 Alpha virt. eigenvalues --    0.08835   0.08978   0.10185   0.10383   0.10852

 Mulliken charges:
               1
     1  C    0.761752
     2  C   -1.254657
     3  C    0.945950
     4  C    0.484998
     5  C   -0.323016
     6  H   -0.484160
     7  S    0.310704
     8  H   -0.359010
     9  C    0.451221
    10  S    0.368124
    11  C   -0.771127
    12  C   -0.393583
    13  C    0.169846
    14  H   -0.478519
    15  S    0.632578
    16  C   -0.045351
    17  C    0.684081
    18  H   -0.380509
    19  H   -0.328874
    20  H    0.045506
    21  H    0.079579
    22  H   -0.115533
 Sum of Mulliken charges =  -0.00000

 Dipole moment (field-independent basis, Debye):
    X=             -0.3644    Y=              1.1080    Z=              0.6230  Tot=              1.3223
 Quadrupole moment (field-independent basis, Debye-Ang):
   XX=            -86.8782   YY=           -104.1487   ZZ=           -105.8328
   XY=             -5.2720   XZ=              2.6659   YZ=             -1.2686

 Normal termination of Gaussian 16 at Tue Oct 26 01:22:47 2021.
