 Gaussian 16, Revision C.01,
 Gaussian 16:  ES64L-G16RevC.01  3-Jul-2019

 ---------------------------------
 # opt=modredundant hf/aug-cc-pvdz
 ---------------------------------

 -------------
 pBTTT_-30.pdb
 -------------
 Symbolic Z-matrix:
 Charge =  0 Multiplicity = 1

 SCF Done:  E(RHF) =  -1613.75385544     A.U. after   18 cycles
 SCF Done:  E(RHF) =  -1613.79517665     A.U. after   16 cycles
 SCF Done:  E(RHF) =  -1613.80884547     A.U. after   16 cycles
 SCF Done:  E(RHF) =  -1613.81158101     A.U. after   15 cycles
 SCF Done:  E(RHF) =  -1613.81201992     A.U. after   14 cycles
 SCF Done:  E(RHF) =  -1613.81273621     A.U. after   15 cycles
 SCF Done:  E(RHF) =  -1613.81284762     A.U. after   14 cycles
 SCF Done:  E(RHF) =  -1613.81290276     A.U. after   14 cycles
 SCF Done:  E(RHF) =  -1613.81295980     A.U. after   13 cycles
 SCF Done:  E(RHF) =  -1613.81302080     A.U. after   13 cycles
 SCF Done:  E(RHF) =  -1613.81305895     A.U. after   12 cycles
 SCF Done:  E(RHF) =  -1613.81307550     A.U. after   12 cycles
 SCF Done:  E(RHF) =  -1613.81307729     A.U. after   11 cycles
 SCF Done:  E(RHF) =  -1613.81307766     A.U. after   10 cycles
 Optimization completed.
    -- Stationary point found.

                         Standard orientation:
 ---------------------------------------------------------------------
 Center     Atomic      Atomic             Coordinates (Angstroms)
 Number     Number       Type             X           Y           Z
 ---------------------------------------------------------------------
      1          6           0       -4.035529    0.263741    0.153445
      2          6           0       -2.708535    0.815146    0.272689
      3          6           0       -1.748909   -0.121061    0.037878
      4          6           0       -2.496320    2.262108    0.645148
      5          6           0       -4.054805   -1.044533   -0.167869
      6          1           0       -4.928224    0.847701    0.318804
      7         16           0       -2.459792   -1.670475   -0.357593
      8          1           0       -4.913258   -1.680197   -0.302685
      9          6           0       -0.283332   -0.010181    0.019185
     10         16           0        0.530623    1.482335   -0.441836
     11          6           0        2.085316    0.740674   -0.231739
     12          6           0        1.957779   -0.559103    0.159690
     13          6           0        0.603334   -0.994748    0.309420
     14          1           0        0.310191   -1.982115    0.625945
     15         16           0        3.513151   -1.300908    0.380618
     16          6           0        4.306076    0.186901   -0.068424
     17          6           0        3.443966    1.181680   -0.365234
     18          1           0        5.381769    0.231330   -0.086446
     19          1           0        3.748142    2.171468   -0.664240
     20          1           0       -3.355262    2.627554    1.205846
     21          1           0       -2.390584    2.888748   -0.241792
     22          1           0       -1.610715    2.396541    1.260407
 ---------------------------------------------------------------------

 The electronic state is 1-A.
 Alpha  occ. eigenvalues --  -91.99095 -91.99026 -91.98458 -11.29168 -11.27897
 Alpha  occ. eigenvalues --  -11.27760 -11.27305 -11.27157 -11.27140 -11.25838
 Alpha  occ. eigenvalues --  -11.25617 -11.25590 -11.24413 -11.23735  -8.99277
 Alpha  occ. eigenvalues --   -8.99208  -8.98704  -6.67443  -6.67374  -6.67363
 Alpha  occ. eigenvalues --   -6.67297  -6.67154  -6.67090  -6.66872  -6.66779
 Alpha  occ. eigenvalues --   -6.66586  -1.21827  -1.18670  -1.12905  -1.04029
 Alpha  occ. eigenvalues --   -1.02766  -1.01763  -0.95580  -0.94771  -0.92091
 Alpha  occ. eigenvalues --   -0.82275  -0.77861  -0.76648  -0.71810  -0.70363
 Alpha  occ. eigenvalues --   -0.67540  -0.66948  -0.60521  -0.59200  -0.58995
 Alpha  occ. eigenvalues --   -0.56801  -0.56502  -0.54900  -0.53868  -0.52443
 Alpha  occ. eigenvalues --   -0.51697  -0.51579  -0.49657  -0.47196  -0.46659
 Alpha  occ. eigenvalues --   -0.45967  -0.39208  -0.35307  -0.34261  -0.32319
 Alpha  occ. eigenvalues --   -0.28209
 Alpha virt. eigenvalues --    0.03444   0.03475   0.04078   0.04801   0.04920
 Alpha virt. eigenvalues --    0.05849   0.06084   0.06796   0.07555   0.08545
 Alpha virt. eigenvalues --    0.09401   0.09762   0.10368   0.10475   0.11037

 Mulliken charges:
               1
     1  C    0.518415
     2  C   -0.745268
     3  C    0.793002
     4  C    0.567744
     5  C   -0.330548
     6  H   -0.505955
     7  S    0.442255
     8  H   -0.367688
     9  C   -0.014670
    10  S    0.455551
    11  C   -0.722835
    12  C   -0.227706
    13  C    0.368171
    14  H   -0.526616
    15  S    0.553536
    16  C   -0.126886
    17  C    0.513379
    18  H   -0.385883
    19  H   -0.328546
    20  H   -0.174200
    21  H    0.143698
    22  H    0.101050
 Sum of Mulliken charges =  -0.00000

 Dipole moment (field-independent basis, Debye):
    X=             -0.5662    Y=              1.2117    Z=              0.3198  Tot=              1.3751
 Quadrupole moment (field-independent basis, Debye-Ang):
   XX=            -86.1508   YY=            -99.4986   ZZ=           -110.6648
   XY=              2.3799   XZ=             -2.0046   YZ=             -0.6433

 Normal termination of Gaussian 16 at Tue Oct 26 01:11:03 2021.
