 Gaussian 16, Revision C.01,
 Gaussian 16:  ES64L-G16RevC.01  3-Jul-2019

 ---------------------------------
 # opt=modredundant hf/aug-cc-pvdz
 ---------------------------------

 ------------
 pBTTT_65.pdb
 ------------
 Symbolic Z-matrix:
 Charge =  0 Multiplicity = 1

 SCF Done:  E(RHF) =  -1613.75138652     A.U. after   18 cycles
 SCF Done:  E(RHF) =  -1613.79426067     A.U. after   16 cycles
 SCF Done:  E(RHF) =  -1613.80924050     A.U. after   15 cycles
 SCF Done:  E(RHF) =  -1613.81221116     A.U. after   15 cycles
 SCF Done:  E(RHF) =  -1613.81263961     A.U. after   14 cycles
 SCF Done:  E(RHF) =  -1613.81345893     A.U. after   13 cycles
 SCF Done:  E(RHF) =  -1613.81352114     A.U. after   13 cycles
 SCF Done:  E(RHF) =  -1613.81355792     A.U. after   13 cycles
 SCF Done:  E(RHF) =  -1613.81361876     A.U. after   12 cycles
 SCF Done:  E(RHF) =  -1613.81391788     A.U. after   14 cycles
 SCF Done:  E(RHF) =  -1613.81357221     A.U. after   15 cycles
 SCF Done:  E(RHF) =  -1613.81431385     A.U. after   13 cycles
 SCF Done:  E(RHF) =  -1613.81446003     A.U. after   14 cycles
 SCF Done:  E(RHF) =  -1613.81458893     A.U. after   15 cycles
 SCF Done:  E(RHF) =  -1613.81479214     A.U. after   14 cycles
 SCF Done:  E(RHF) =  -1613.81480608     A.U. after   11 cycles
 SCF Done:  E(RHF) =  -1613.81480761     A.U. after   10 cycles
 Optimization completed.
    -- Stationary point found.

                         Standard orientation:
 ---------------------------------------------------------------------
 Center     Atomic      Atomic             Coordinates (Angstroms)
 Number     Number       Type             X           Y           Z
 ---------------------------------------------------------------------
      1          6           0        4.009803    0.317367    0.363367
      2          6           0        2.651323    0.768879    0.544381
      3          6           0        1.754948   -0.113552    0.036184
      4          6           0        2.325008    2.060920    1.245933
      5          6           0        4.102446   -0.872751   -0.262702
      6          1           0        4.867089    0.876489    0.707216
      7         16           0        2.547845   -1.499526   -0.673164
      8          1           0        4.996754   -1.421386   -0.505498
      9          6           0        0.283087   -0.030094    0.003088
     10         16           0       -0.519420    1.222726   -0.935669
     11          6           0       -2.077827    0.607875   -0.478210
     12          6           0       -1.955082   -0.489156    0.323297
     13          6           0       -0.599269   -0.861408    0.602416
     14          1           0       -0.299854   -1.692921    1.219281
     15         16           0       -3.512583   -1.106024    0.784006
     16          6           0       -4.300770    0.152260   -0.131260
     17          6           0       -3.436279    0.986499   -0.745501
     18          1           0       -5.376381    0.195112   -0.158723
     19          1           0       -3.737872    1.822155   -1.355655
     20          1           0        2.846913    2.110810    2.202185
     21          1           0        1.259857    2.157466    1.433173
     22          1           0        2.645704    2.916399    0.649295
 ---------------------------------------------------------------------

 The electronic state is 1-A.
 Alpha  occ. eigenvalues --  -91.99049 -91.99000 -91.98390 -11.28850 -11.27802
 Alpha  occ. eigenvalues --  -11.27533 -11.27313 -11.27165 -11.27109 -11.25822
 Alpha  occ. eigenvalues --  -11.25770 -11.25501 -11.24313 -11.23570  -8.99232
 Alpha  occ. eigenvalues --   -8.99158  -8.98608  -6.67398  -6.67322  -6.67320
 Alpha  occ. eigenvalues --   -6.67240  -6.67114  -6.67033  -6.66772  -6.66680
 Alpha  occ. eigenvalues --   -6.66489  -1.21757  -1.18572  -1.12870  -1.03888
 Alpha  occ. eigenvalues --   -1.02589  -1.01626  -0.95711  -0.94701  -0.91846
 Alpha  occ. eigenvalues --   -0.82117  -0.77555  -0.76490  -0.72299  -0.70114
 Alpha  occ. eigenvalues --   -0.67369  -0.66882  -0.60613  -0.59122  -0.58845
 Alpha  occ. eigenvalues --   -0.56739  -0.56334  -0.54752  -0.53784  -0.52514
 Alpha  occ. eigenvalues --   -0.51660  -0.51095  -0.49541  -0.47348  -0.46337
 Alpha  occ. eigenvalues --   -0.46027  -0.38886  -0.34294  -0.33749  -0.32258
 Alpha  occ. eigenvalues --   -0.29759
 Alpha virt. eigenvalues --    0.03432   0.03483   0.04171   0.04692   0.04879
 Alpha virt. eigenvalues --    0.05863   0.05994   0.07389   0.08018   0.08651
 Alpha virt. eigenvalues --    0.08788   0.09189   0.10303   0.10557   0.11214

 Mulliken charges:
               1
     1  C    0.603840
     2  C   -1.040048
     3  C    0.873664
     4  C    0.489706
     5  C   -0.264338
     6  H   -0.481648
     7  S    0.338561
     8  H   -0.357990
     9  C    0.275577
    10  S    0.339146
    11  C   -0.738005
    12  C   -0.296508
    13  C    0.250443
    14  H   -0.488640
    15  S    0.618847
    16  C   -0.080604
    17  C    0.635198
    18  H   -0.381952
    19  H   -0.325233
    20  H    0.015391
    21  H   -0.098809
    22  H    0.113402
 Sum of Mulliken charges =  -0.00000

 Dipole moment (field-independent basis, Debye):
    X=              0.4408    Y=              1.0809    Z=              0.6280  Tot=              1.3255
 Quadrupole moment (field-independent basis, Debye-Ang):
   XX=            -86.6144   YY=           -102.4566   ZZ=           -107.5796
   XY=             -1.9660   XZ=              4.0786   YZ=             -1.1938

 Normal termination of Gaussian 16 at Tue Oct 26 01:43:38 2021.
