 Gaussian 16, Revision C.01,
 Gaussian 16:  ES64L-G16RevC.01  3-Jul-2019

 ---------------------------------
 # opt=modredundant hf/aug-cc-pvdz
 ---------------------------------

 -------------
 pBTTT_-20.pdb
 -------------
 Symbolic Z-matrix:
 Charge =  0 Multiplicity = 1

 SCF Done:  E(RHF) =  -1613.75383733     A.U. after   18 cycles
 SCF Done:  E(RHF) =  -1613.79493612     A.U. after   16 cycles
 SCF Done:  E(RHF) =  -1613.80842530     A.U. after   16 cycles
 SCF Done:  E(RHF) =  -1613.81114373     A.U. after   15 cycles
 SCF Done:  E(RHF) =  -1613.81164290     A.U. after   14 cycles
 SCF Done:  E(RHF) =  -1613.81221156     A.U. after   15 cycles
 SCF Done:  E(RHF) =  -1613.81232816     A.U. after   14 cycles
 SCF Done:  E(RHF) =  -1613.81234348     A.U. after   13 cycles
 SCF Done:  E(RHF) =  -1613.81237365     A.U. after   13 cycles
 SCF Done:  E(RHF) =  -1613.81240151     A.U. after   12 cycles
 SCF Done:  E(RHF) =  -1613.81241231     A.U. after   11 cycles
 SCF Done:  E(RHF) =  -1613.81241576     A.U. after   11 cycles
 SCF Done:  E(RHF) =  -1613.81241681     A.U. after   11 cycles
 SCF Done:  E(RHF) =  -1613.81241711     A.U. after   10 cycles
 Optimization completed.
    -- Stationary point found.

                         Standard orientation:
 ---------------------------------------------------------------------
 Center     Atomic      Atomic             Coordinates (Angstroms)
 Number     Number       Type             X           Y           Z
 ---------------------------------------------------------------------
      1          6           0       -4.039546    0.257873    0.102134
      2          6           0       -2.716491    0.824766    0.184895
      3          6           0       -1.748673   -0.121219    0.029067
      4          6           0       -2.518460    2.300193    0.435493
      5          6           0       -4.050682   -1.071077   -0.116785
      6          1           0       -4.935815    0.848733    0.214014
      7         16           0       -2.451561   -1.701002   -0.245883
      8          1           0       -4.904399   -1.720422   -0.209196
      9          6           0       -0.283933   -0.006737    0.016622
     10         16           0        0.535912    1.522751   -0.294521
     11          6           0        2.088326    0.760931   -0.157696
     12          6           0        1.958002   -0.569559    0.108385
     13          6           0        0.603359   -1.014773    0.213667
     14          1           0        0.312639   -2.028811    0.432569
     15         16           0        3.511779   -1.332382    0.257188
     16          6           0        4.307899    0.189969   -0.048546
     17          6           0        3.447637    1.210156   -0.249060
     18          1           0        5.383663    0.233741   -0.062393
     19          1           0        3.753698    2.223383   -0.452339
     20          1           0       -3.442505    2.736695    0.809972
     21          1           0       -2.251526    2.828444   -0.480654
     22          1           0       -1.738449    2.485216    1.170427
 ---------------------------------------------------------------------

 The electronic state is 1-A.
 Alpha  occ. eigenvalues --  -91.99111 -91.99015 -91.98470 -11.29266 -11.27999
 Alpha  occ. eigenvalues --  -11.27740 -11.27296 -11.27176 -11.27131 -11.25835
 Alpha  occ. eigenvalues --  -11.25678 -11.25539 -11.24447 -11.23809  -8.99296
 Alpha  occ. eigenvalues --   -8.99197  -8.98726  -6.67462  -6.67383  -6.67364
 Alpha  occ. eigenvalues --   -6.67286  -6.67172  -6.67079  -6.66896  -6.66802
 Alpha  occ. eigenvalues --   -6.66609  -1.21835  -1.18702  -1.12902  -1.04104
 Alpha  occ. eigenvalues --   -1.02806  -1.01781  -0.95560  -0.94769  -0.92177
 Alpha  occ. eigenvalues --   -0.82317  -0.77951  -0.76674  -0.71694  -0.70437
 Alpha  occ. eigenvalues --   -0.67611  -0.66969  -0.60498  -0.59252  -0.59048
 Alpha  occ. eigenvalues --   -0.56798  -0.56562  -0.54957  -0.53915  -0.52367
 Alpha  occ. eigenvalues --   -0.51800  -0.51679  -0.49660  -0.47163  -0.46762
 Alpha  occ. eigenvalues --   -0.45883  -0.39318  -0.35530  -0.34340  -0.32331
 Alpha  occ. eigenvalues --   -0.27902
 Alpha virt. eigenvalues --    0.03431   0.03468   0.04039   0.04777   0.04987
 Alpha virt. eigenvalues --    0.05866   0.06101   0.06595   0.07498   0.08505
 Alpha virt. eigenvalues --    0.09565   0.10010   0.10293   0.10481   0.10993

 Mulliken charges:
               1
     1  C    0.515219
     2  C   -0.655604
     3  C    0.651138
     4  C    0.584620
     5  C   -0.343702
     6  H   -0.520488
     7  S    0.490862
     8  H   -0.377488
     9  C   -0.036385
    10  S    0.517696
    11  C   -0.782276
    12  C   -0.189164
    13  C    0.414076
    14  H   -0.538691
    15  S    0.528980
    16  C   -0.144058
    17  C    0.498396
    18  H   -0.388143
    19  H   -0.329449
    20  H   -0.216801
    21  H    0.166605
    22  H    0.154658
 Sum of Mulliken charges =  -0.00000

 Dipole moment (field-independent basis, Debye):
    X=             -0.6128    Y=              1.2381    Z=              0.2198  Tot=              1.3989
 Quadrupole moment (field-independent basis, Debye-Ang):
   XX=            -86.0021   YY=            -98.9588   ZZ=           -111.2570
   XY=              2.3835   XZ=             -1.3715   YZ=             -0.4319

 Normal termination of Gaussian 16 at Tue Oct 26 01:03:31 2021.
