 Gaussian 16, Revision C.01,
 Gaussian 16:  ES64L-G16RevC.01  3-Jul-2019

 ---------------------------------
 # opt=modredundant hf/aug-cc-pvdz
 ---------------------------------

 -------------
 pBTTT_-80.pdb
 -------------
 Symbolic Z-matrix:
 Charge =  0 Multiplicity = 1

 SCF Done:  E(RHF) =  -1613.75095702     A.U. after   18 cycles
 SCF Done:  E(RHF) =  -1613.79416304     A.U. after   16 cycles
 SCF Done:  E(RHF) =  -1613.80936768     A.U. after   15 cycles
 SCF Done:  E(RHF) =  -1613.81224743     A.U. after   16 cycles
 SCF Done:  E(RHF) =  -1613.81264438     A.U. after   15 cycles
 SCF Done:  E(RHF) =  -1613.81346144     A.U. after   14 cycles
 SCF Done:  E(RHF) =  -1613.81350851     A.U. after   13 cycles
 SCF Done:  E(RHF) =  -1613.81352665     A.U. after   12 cycles
 SCF Done:  E(RHF) =  -1613.81355572     A.U. after   12 cycles
 SCF Done:  E(RHF) =  -1613.81359883     A.U. after   12 cycles
 SCF Done:  E(RHF) =  -1613.81379865     A.U. after   14 cycles
 SCF Done:  E(RHF) =  -1613.81373568     A.U. after   14 cycles
 SCF Done:  E(RHF) =  -1613.81415017     A.U. after   12 cycles
 SCF Done:  E(RHF) =  -1613.81475901     A.U. after   14 cycles
 SCF Done:  E(RHF) =  -1613.81479078     A.U. after   13 cycles
 SCF Done:  E(RHF) =  -1613.81480239     A.U. after   11 cycles
 SCF Done:  E(RHF) =  -1613.81480317     A.U. after   10 cycles
 SCF Done:  E(RHF) =  -1613.81480333     A.U. after   10 cycles
 SCF Done:  E(RHF) =  -1613.81480336     A.U. after    8 cycles
 Optimization completed.
    -- Stationary point found.

                         Standard orientation:
 ---------------------------------------------------------------------
 Center     Atomic      Atomic             Coordinates (Angstroms)
 Number     Number       Type             X           Y           Z
 ---------------------------------------------------------------------
      1          6           0        3.993794    0.365391   -0.442254
      2          6           0        2.620530    0.779166   -0.603428
      3          6           0        1.758283   -0.102567   -0.040859
      4          6           0        2.239017    2.042723   -1.327098
      5          6           0        4.127967   -0.797162    0.226621
      6          1           0        4.829702    0.931208   -0.825437
      7         16           0        2.598624   -1.445171    0.696250
      8          1           0        5.040246   -1.315294    0.469810
      9          6           0        0.284096   -0.038502    0.010280
     10         16           0       -0.520661    0.976160    1.200551
     11          6           0       -2.077425    0.479733    0.612515
     12          6           0       -1.952345   -0.408122   -0.415709
     13          6           0       -0.594958   -0.711579   -0.764385
     14          1           0       -0.291828   -1.387591   -1.547191
     15         16           0       -3.508396   -0.906111   -1.006894
     16          6           0       -4.299421    0.112863    0.167007
     17          6           0       -3.437018    0.787096    0.955717
     18          1           0       -5.375129    0.148393    0.200604
     19          1           0       -3.740538    1.463335    1.738091
     20          1           0        2.647760    2.038734   -2.338479
     21          1           0        2.640937    2.916199   -0.811613
     22          1           0        1.160670    2.152722   -1.394733
 ---------------------------------------------------------------------

 The electronic state is 1-A.
 Alpha  occ. eigenvalues --  -91.99057 -91.98958 -91.98347 -11.28772 -11.27814
 Alpha  occ. eigenvalues --  -11.27431 -11.27311 -11.27158 -11.27121 -11.25816
 Alpha  occ. eigenvalues --  -11.25811 -11.25499 -11.24284 -11.23565  -8.99239
 Alpha  occ. eigenvalues --   -8.99112  -8.98562  -6.67406  -6.67328  -6.67275
 Alpha  occ. eigenvalues --   -6.67194  -6.67122  -6.66987  -6.66725  -6.66633
 Alpha  occ. eigenvalues --   -6.66443  -1.21738  -1.18544  -1.12857  -1.03885
 Alpha  occ. eigenvalues --   -1.02532  -1.01570  -0.95765  -0.94662  -0.91800
 Alpha  occ. eigenvalues --   -0.82076  -0.77463  -0.76422  -0.72493  -0.70036
 Alpha  occ. eigenvalues --   -0.67342  -0.66871  -0.60656  -0.59082  -0.58821
 Alpha  occ. eigenvalues --   -0.56717  -0.56322  -0.54706  -0.53788  -0.52492
 Alpha  occ. eigenvalues --   -0.51673  -0.50996  -0.49497  -0.47380  -0.46271
 Alpha  occ. eigenvalues --   -0.46004  -0.38824  -0.34201  -0.33150  -0.32223
 Alpha  occ. eigenvalues --   -0.30455
 Alpha virt. eigenvalues --    0.03409   0.03481   0.04177   0.04641   0.04897
 Alpha virt. eigenvalues --    0.05743   0.06113   0.07353   0.08365   0.08690
 Alpha virt. eigenvalues --    0.08752   0.09029   0.10207   0.10373   0.11129

 Mulliken charges:
               1
     1  C    0.711427
     2  C   -1.171873
     3  C    0.903533
     4  C    0.469076
     5  C   -0.296227
     6  H   -0.483072
     7  S    0.303123
     8  H   -0.358801
     9  C    0.406752
    10  S    0.343993
    11  C   -0.756321
    12  C   -0.372079
    13  C    0.211854
    14  H   -0.485336
    15  S    0.632078
    16  C   -0.057510
    17  C    0.683610
    18  H   -0.381715
    19  H   -0.326112
    20  H    0.051724
    21  H    0.087668
    22  H   -0.115790
 Sum of Mulliken charges =  -0.00000

 Dipole moment (field-independent basis, Debye):
    X=              0.3946    Y=              1.0667    Z=             -0.6762  Tot=              1.3232
 Quadrupole moment (field-independent basis, Debye-Ang):
   XX=            -86.7717   YY=           -104.2885   ZZ=           -105.7200
   XY=             -1.2534   XZ=             -5.0086   YZ=              1.2222

 Normal termination of Gaussian 16 at Tue Oct 26 00:44:40 2021.
