 Gaussian 16, Revision C.01,
 Gaussian 16:  ES64L-G16RevC.01  3-Jul-2019

 ---------------------------------
 # opt=modredundant hf/aug-cc-pvdz
 ---------------------------------

 --------------
 pBTTT_-135.pdb
 --------------
 Symbolic Z-matrix:
 Charge =  0 Multiplicity = 1

 SCF Done:  E(RHF) =  -1613.75113887     A.U. after   17 cycles
 SCF Done:  E(RHF) =  -1613.79343473     A.U. after   16 cycles
 SCF Done:  E(RHF) =  -1613.80840779     A.U. after   16 cycles
 SCF Done:  E(RHF) =  -1613.81138592     A.U. after   16 cycles
 SCF Done:  E(RHF) =  -1613.81207684     A.U. after   14 cycles
 SCF Done:  E(RHF) =  -1613.81302730     A.U. after   14 cycles
 SCF Done:  E(RHF) =  -1613.81311442     A.U. after   14 cycles
 SCF Done:  E(RHF) =  -1613.81352892     A.U. after   13 cycles
 SCF Done:  E(RHF) =  -1613.81386374     A.U. after   13 cycles
 SCF Done:  E(RHF) =  -1613.81421506     A.U. after   13 cycles
 SCF Done:  E(RHF) =  -1613.81430425     A.U. after   13 cycles
 SCF Done:  E(RHF) =  -1613.81433540     A.U. after   12 cycles
 SCF Done:  E(RHF) =  -1613.81433771     A.U. after   11 cycles
 SCF Done:  E(RHF) =  -1613.81434124     A.U. after   11 cycles
 SCF Done:  E(RHF) =  -1613.81434144     A.U. after    9 cycles
 Optimization completed.
    -- Stationary point found.

                         Standard orientation:
 ---------------------------------------------------------------------
 Center     Atomic      Atomic             Coordinates (Angstroms)
 Number     Number       Type             X           Y           Z
 ---------------------------------------------------------------------
      1          6           0        3.960117    0.744477    0.088914
      2          6           0        2.570894    1.060809    0.313148
      3          6           0        1.756317    0.028341   -0.029231
      4          6           0        2.141613    2.384990    0.889019
      5          6           0        4.158955   -0.495144   -0.400740
      6          1           0        4.762735    1.432801    0.307252
      7         16           0        2.670474   -1.337233   -0.628323
      8          1           0        5.096301   -0.968031   -0.639868
      9          6           0        0.288289   -0.032214    0.009780
     10         16           0       -0.528876   -1.444104    0.672848
     11          6           0       -2.079991   -0.747819    0.320923
     12          6           0       -1.946467    0.481159   -0.255247
     13          6           0       -0.587861    0.893545   -0.446063
     14          1           0       -0.285284    1.812946   -0.918640
     15         16           0       -3.498025    1.179019   -0.608395
     16          6           0       -4.298330   -0.227953    0.042536
     17          6           0       -3.441401   -1.165928    0.496957
     18          1           0       -5.374170   -0.272573    0.047481
     19          1           0       -3.750452   -2.102000    0.932628
     20          1           0        2.827294    2.689050    1.679703
     21          1           0        1.140080    2.333029    1.306819
     22          1           0        2.153531    3.166301    0.126577
 ---------------------------------------------------------------------

 The electronic state is 1-A.
 Alpha  occ. eigenvalues --  -91.99069 -91.98976 -91.98426 -11.28983 -11.27781
 Alpha  occ. eigenvalues --  -11.27722 -11.27319 -11.27170 -11.27159 -11.25821
 Alpha  occ. eigenvalues --  -11.25755 -11.25586 -11.24393 -11.23819  -8.99250
 Alpha  occ. eigenvalues --   -8.99146  -8.98659  -6.67417  -6.67339  -6.67311
 Alpha  occ. eigenvalues --   -6.67229  -6.67132  -6.67021  -6.66825  -6.66732
 Alpha  occ. eigenvalues --   -6.66540  -1.21791  -1.18643  -1.12887  -1.04116
 Alpha  occ. eigenvalues --   -1.02441  -1.01813  -0.95887  -0.94575  -0.92012
 Alpha  occ. eigenvalues --   -0.82241  -0.77352  -0.76708  -0.72759  -0.70028
 Alpha  occ. eigenvalues --   -0.67426  -0.66885  -0.60737  -0.59156  -0.58941
 Alpha  occ. eigenvalues --   -0.56702  -0.56338  -0.54670  -0.54050  -0.52540
 Alpha  occ. eigenvalues --   -0.51932  -0.51115  -0.49470  -0.47353  -0.46559
 Alpha  occ. eigenvalues --   -0.46085  -0.39020  -0.34813  -0.34149  -0.32275
 Alpha  occ. eigenvalues --   -0.28905
 Alpha virt. eigenvalues --    0.03387   0.03524   0.04059   0.04836   0.04941
 Alpha virt. eigenvalues --    0.05478   0.06698   0.07283   0.07711   0.08444
 Alpha virt. eigenvalues --    0.08757   0.09493   0.10174   0.10752   0.11164

 Mulliken charges:
               1
     1  C    0.571328
     2  C   -0.854996
     3  C    0.704738
     4  C    0.504292
     5  C   -0.282115
     6  H   -0.482510
     7  S    0.391948
     8  H   -0.359800
     9  C    0.236095
    10  S    0.407531
    11  C   -0.737076
    12  C   -0.335684
    13  C    0.310811
    14  H   -0.479870
    15  S    0.601672
    16  C   -0.067941
    17  C    0.575902
    18  H   -0.381580
    19  H   -0.328194
    20  H   -0.077670
    21  H   -0.034737
    22  H    0.117853
 Sum of Mulliken charges =  -0.00000

 Dipole moment (field-independent basis, Debye):
    X=              0.3975    Y=              1.1209    Z=              0.4007  Tot=              1.2550
 Quadrupole moment (field-independent basis, Debye-Ang):
   XX=            -86.7595   YY=           -100.4955   ZZ=           -109.4418
   XY=              6.6443   XZ=             -1.4471   YZ=             -0.9033

 1\1\GINC-CX3-12-15\FOpt\RHF\Aug-CC-pVDZ\C11H8S3\NS5018\25-Oct-2021\0\\
 # opt=modredundant hf/aug-cc-pvdz\\pBTTT_-135.pdb\\0,1\C,-4.1639467119
 ,-1.4117956846,0.0027863397\C,-2.9091228593,-0.988410704,-0.5685700642
 \C,-2.0399038678,-2.0244731359,-0.701920316\C,-2.6648613089,0.44128344
 72,-0.9756025011\C,-4.2148926655,-2.7304629802,0.275693292\H,-4.987140
 9436,-0.7361448603,0.1802841982\S,-2.7384268348,-3.5237942428,-0.13315
 80184\H,-5.0371898818,-3.2872213033,0.69194895\C,-0.6569081268,-2.0018
 61449,-1.1990170867\S,-0.1008031991,-3.2182285313,-2.3444644063\C,1.49

 Normal termination of Gaussian 16 at Mon Oct 25 23:03:31 2021.
