 Gaussian 16, Revision C.01,
 Gaussian 16:  ES64L-G16RevC.01  3-Jul-2019

 ---------------------------------
 # opt=modredundant hf/aug-cc-pvdz
 ---------------------------------

 -------------
 pBTTT_-10.pdb
 -------------
 Symbolic Z-matrix:
 Charge =  0 Multiplicity = 1

 SCF Done:  E(RHF) =  -1613.75365903     A.U. after   18 cycles
 SCF Done:  E(RHF) =  -1613.79462477     A.U. after   16 cycles
 SCF Done:  E(RHF) =  -1613.80801402     A.U. after   16 cycles
 SCF Done:  E(RHF) =  -1613.81074741     A.U. after   16 cycles
 SCF Done:  E(RHF) =  -1613.81138439     A.U. after   15 cycles
 SCF Done:  E(RHF) =  -1613.81177049     A.U. after   15 cycles
 SCF Done:  E(RHF) =  -1613.81193682     A.U. after   14 cycles
 SCF Done:  E(RHF) =  -1613.81193445     A.U. after   12 cycles
 SCF Done:  E(RHF) =  -1613.81195215     A.U. after   13 cycles
 SCF Done:  E(RHF) =  -1613.81195530     A.U. after   11 cycles
 SCF Done:  E(RHF) =  -1613.81195797     A.U. after   11 cycles
 SCF Done:  E(RHF) =  -1613.81195959     A.U. after   10 cycles
 SCF Done:  E(RHF) =  -1613.81196015     A.U. after   10 cycles
 Optimization completed.
    -- Stationary point found.

                         Standard orientation:
 ---------------------------------------------------------------------
 Center     Atomic      Atomic             Coordinates (Angstroms)
 Number     Number       Type             X           Y           Z
 ---------------------------------------------------------------------
      1          6           0       -4.041947    0.256819    0.050694
      2          6           0       -2.720418    0.831521    0.093183
      3          6           0       -1.748731   -0.121335    0.015682
      4          6           0       -2.528913    2.323851    0.217883
      5          6           0       -4.050009   -1.085134   -0.059821
      6          1           0       -4.939526    0.853364    0.106840
      7         16           0       -2.449345   -1.720423   -0.125059
      8          1           0       -4.901823   -1.741732   -0.106639
      9          6           0       -0.284360   -0.005279    0.010291
     10         16           0        0.540007    1.547017   -0.145906
     11          6           0        2.090660    0.773499   -0.079536
     12          6           0        1.958316   -0.576176    0.055068
     13          6           0        0.603423   -1.027841    0.109786
     14          1           0        0.314802   -2.059630    0.221697
     15         16           0        3.510804   -1.352371    0.128878
     16          6           0        4.309368    0.191572   -0.025874
     17          6           0        3.450545    1.227631   -0.126342
     18          1           0        5.385178    0.235202   -0.034127
     19          1           0        3.758120    2.255442   -0.229444
     20          1           0       -3.488068    2.803180    0.402814
     21          1           0       -2.115498    2.752859   -0.695003
     22          1           0       -1.864239    2.578986    1.041174
 ---------------------------------------------------------------------

 The electronic state is 1-A.
 Alpha  occ. eigenvalues --  -91.99122 -91.99007 -91.98475 -11.29339 -11.28078
 Alpha  occ. eigenvalues --  -11.27722 -11.27290 -11.27212 -11.27101 -11.25830
 Alpha  occ. eigenvalues --  -11.25732 -11.25503 -11.24473 -11.23862  -8.99308
 Alpha  occ. eigenvalues --   -8.99188  -8.98739  -6.67474  -6.67395  -6.67355
 Alpha  occ. eigenvalues --   -6.67277  -6.67184  -6.67070  -6.66911  -6.66817
 Alpha  occ. eigenvalues --   -6.66623  -1.21838  -1.18728  -1.12897  -1.04167
 Alpha  occ. eigenvalues --   -1.02833  -1.01791  -0.95552  -0.94762  -0.92243
 Alpha  occ. eigenvalues --   -0.82348  -0.78016  -0.76689  -0.71614  -0.70492
 Alpha  occ. eigenvalues --   -0.67668  -0.66983  -0.60484  -0.59309  -0.59088
 Alpha  occ. eigenvalues --   -0.56789  -0.56601  -0.55005  -0.53952  -0.52264
 Alpha  occ. eigenvalues --   -0.51974  -0.51697  -0.49654  -0.47153  -0.46826
 Alpha  occ. eigenvalues --   -0.45801  -0.39402  -0.35672  -0.34399  -0.32342
 Alpha  occ. eigenvalues --   -0.27705
 Alpha virt. eigenvalues --    0.03411   0.03460   0.04003   0.04761   0.05024
 Alpha virt. eigenvalues --    0.05912   0.06091   0.06500   0.07442   0.08464
 Alpha virt. eigenvalues --    0.09653   0.10019   0.10345   0.10652   0.11006

 Mulliken charges:
               1
     1  C    0.516271
     2  C   -0.639376
     3  C    0.520289
     4  C    0.620038
     5  C   -0.336030
     6  H   -0.534497
     7  S    0.571410
     8  H   -0.388327
     9  C   -0.077314
    10  S    0.545336
    11  C   -0.825734
    12  C   -0.149163
    13  C    0.467793
    14  H   -0.545272
    15  S    0.504563
    16  C   -0.162719
    17  C    0.504642
    18  H   -0.391871
    19  H   -0.330758
    20  H   -0.236095
    21  H    0.184594
    22  H    0.182222
 Sum of Mulliken charges =  -0.00000

 Dipole moment (field-independent basis, Debye):
    X=             -0.6528    Y=              1.2566    Z=              0.1106  Tot=              1.4203
 Quadrupole moment (field-independent basis, Debye-Ang):
   XX=            -85.8777   YY=            -98.6080   ZZ=           -111.6508
   XY=              2.3678   XZ=             -0.7011   YZ=             -0.2179

 Normal termination of Gaussian 16 at Tue Oct 26 00:47:21 2021.
