 Gaussian 16, Revision C.01,
 Gaussian 16:  ES64L-G16RevC.01  3-Jul-2019

 ---------------------------------
 # opt=modredundant hf/aug-cc-pvdz
 ---------------------------------

 ------------
 pBTTT_40.pdb
 ------------
 Symbolic Z-matrix:
 Charge =  0 Multiplicity = 1

 SCF Done:  E(RHF) =  -1613.75203111     A.U. after   17 cycles
 SCF Done:  E(RHF) =  -1613.79409373     A.U. after   16 cycles
 SCF Done:  E(RHF) =  -1613.80861336     A.U. after   15 cycles
 SCF Done:  E(RHF) =  -1613.81156318     A.U. after   16 cycles
 SCF Done:  E(RHF) =  -1613.81216146     A.U. after   15 cycles
 SCF Done:  E(RHF) =  -1613.81301454     A.U. after   13 cycles
 SCF Done:  E(RHF) =  -1613.81317688     A.U. after   12 cycles
 SCF Done:  E(RHF) =  -1613.81325370     A.U. after   14 cycles
 SCF Done:  E(RHF) =  -1613.81341019     A.U. after   13 cycles
 SCF Done:  E(RHF) =  -1613.81354345     A.U. after   14 cycles
 SCF Done:  E(RHF) =  -1613.81367610     A.U. after   12 cycles
 SCF Done:  E(RHF) =  -1613.81376531     A.U. after   13 cycles
 SCF Done:  E(RHF) =  -1613.81377699     A.U. after   12 cycles
 SCF Done:  E(RHF) =  -1613.81377896     A.U. after   10 cycles
 SCF Done:  E(RHF) =  -1613.81377913     A.U. after    9 cycles
 Optimization completed.
    -- Stationary point found.

                         Standard orientation:
 ---------------------------------------------------------------------
 Center     Atomic      Atomic             Coordinates (Angstroms)
 Number     Number       Type             X           Y           Z
 ---------------------------------------------------------------------
      1          6           0        4.030027    0.275601    0.207046
      2          6           0        2.696158    0.803665    0.355715
      3          6           0        1.749692   -0.120594    0.041363
      4          6           0        2.461096    2.212016    0.841542
      5          6           0        4.063873   -1.005468   -0.209653
      6          1           0        4.916036    0.852948    0.424306
      7         16           0        2.476270   -1.630712   -0.459613
      8          1           0        4.929977   -1.621391   -0.382480
      9          6           0        0.282732   -0.015515    0.017986
     10         16           0       -0.525625    1.426958   -0.585734
     11          6           0       -2.082430    0.713274   -0.302339
     12          6           0       -1.957678   -0.545129    0.208216
     13          6           0       -0.603284   -0.968291    0.397524
     14          1           0       -0.308229   -1.921823    0.803701
     15         16           0       -3.514487   -1.259577    0.498370
     16          6           0       -4.304376    0.181721   -0.086488
     17          6           0       -3.440476    1.142824   -0.474952
     18          1           0       -5.379995    0.226660   -0.108107
     19          1           0       -3.742828    2.101186   -0.864483
     20          1           0        3.226979    2.484785    1.566812
     21          1           0        1.490934    2.319749    1.317588
     22          1           0        2.516591    2.926570    0.018554
 ---------------------------------------------------------------------

 The electronic state is 1-A.
 Alpha  occ. eigenvalues --  -91.99075 -91.99035 -91.98440 -11.29067 -11.27792
 Alpha  occ. eigenvalues --  -11.27776 -11.27313 -11.27170 -11.27117 -11.25836
 Alpha  occ. eigenvalues --  -11.25646 -11.25568 -11.24380 -11.23664  -8.99251
 Alpha  occ. eigenvalues --   -8.99218  -8.98676  -6.67416  -6.67384  -6.67336
 Alpha  occ. eigenvalues --   -6.67306  -6.67127  -6.67100  -6.66843  -6.66750
 Alpha  occ. eigenvalues --   -6.66558  -1.21810  -1.18636  -1.12899  -1.03964
 Alpha  occ. eigenvalues --   -1.02717  -1.01734  -0.95610  -0.94761  -0.92004
 Alpha  occ. eigenvalues --   -0.82228  -0.77765  -0.76613  -0.71945  -0.70286
 Alpha  occ. eigenvalues --   -0.67475  -0.66926  -0.60549  -0.59169  -0.58940
 Alpha  occ. eigenvalues --   -0.56791  -0.56438  -0.54850  -0.53828  -0.52493
 Alpha  occ. eigenvalues --   -0.51679  -0.51405  -0.49637  -0.47241  -0.46546
 Alpha  occ. eigenvalues --   -0.46023  -0.39097  -0.35015  -0.34175  -0.32306
 Alpha  occ. eigenvalues --   -0.28593
 Alpha virt. eigenvalues --    0.03448   0.03481   0.04113   0.04827   0.04848
 Alpha virt. eigenvalues --    0.05855   0.06036   0.07073   0.07591   0.08577
 Alpha virt. eigenvalues --    0.09200   0.09538   0.10407   0.10539   0.11139

 Mulliken charges:
               1
     1  C    0.524101
     2  C   -0.863360
     3  C    0.891494
     4  C    0.555045
     5  C   -0.304745
     6  H   -0.494762
     7  S    0.409895
     8  H   -0.361497
     9  C    0.036198
    10  S    0.387982
    11  C   -0.689324
    12  C   -0.250533
    13  C    0.329946
    14  H   -0.511070
    15  S    0.575075
    16  C   -0.111674
    17  C    0.543839
    18  H   -0.384427
    19  H   -0.327663
    20  H   -0.112637
    21  H    0.028261
    22  H    0.129855
 Sum of Mulliken charges =  -0.00000

 Dipole moment (field-independent basis, Debye):
    X=              0.5254    Y=              1.1792    Z=              0.4143  Tot=              1.3558
 Quadrupole moment (field-independent basis, Debye-Ang):
   XX=            -86.2922   YY=           -100.1881   ZZ=           -109.9281
   XY=             -2.3322   XZ=              2.6097   YZ=             -0.8418

 Normal termination of Gaussian 16 at Tue Oct 26 01:03:21 2021.
