 Gaussian 16, Revision C.01,
 Gaussian 16:  ES64L-G16RevC.01  3-Jul-2019

 ---------------------------------
 # opt=modredundant hf/aug-cc-pvdz
 ---------------------------------

 -------------
 pBTTT_-70.pdb
 -------------
 Symbolic Z-matrix:
 Charge =  0 Multiplicity = 1

 SCF Done:  E(RHF) =  -1613.75158772     A.U. after   18 cycles
 SCF Done:  E(RHF) =  -1613.79455097     A.U. after   15 cycles
 SCF Done:  E(RHF) =  -1613.80951407     A.U. after   15 cycles
 SCF Done:  E(RHF) =  -1613.81235717     A.U. after   16 cycles
 SCF Done:  E(RHF) =  -1613.81274979     A.U. after   15 cycles
 SCF Done:  E(RHF) =  -1613.81355845     A.U. after   14 cycles
 SCF Done:  E(RHF) =  -1613.81362080     A.U. after   13 cycles
 SCF Done:  E(RHF) =  -1613.81365654     A.U. after   13 cycles
 SCF Done:  E(RHF) =  -1613.81372471     A.U. after   12 cycles
 SCF Done:  E(RHF) =  -1613.81395122     A.U. after   13 cycles
 SCF Done:  E(RHF) =  -1613.81420080     A.U. after   14 cycles
 SCF Done:  E(RHF) =  -1613.81434772     A.U. after   13 cycles
 SCF Done:  E(RHF) =  -1613.81469549     A.U. after   13 cycles
 SCF Done:  E(RHF) =  -1613.81483637     A.U. after   14 cycles
 SCF Done:  E(RHF) =  -1613.81476596     A.U. after   13 cycles
 SCF Done:  E(RHF) =  -1613.81483847     A.U. after   13 cycles
 SCF Done:  E(RHF) =  -1613.81483778     A.U. after   11 cycles
 SCF Done:  E(RHF) =  -1613.81483908     A.U. after   11 cycles
 SCF Done:  E(RHF) =  -1613.81483914     A.U. after    8 cycles
 SCF Done:  E(RHF) =  -1613.81483916     A.U. after    8 cycles
 Optimization completed.
    -- Stationary point found.

                         Standard orientation:
 ---------------------------------------------------------------------
 Center     Atomic      Atomic             Coordinates (Angstroms)
 Number     Number       Type             X           Y           Z
 ---------------------------------------------------------------------
      1          6           0       -4.004511    0.327833    0.395554
      2          6           0       -2.640731    0.763872    0.575480
      3          6           0       -1.756209   -0.110859    0.035457
      4          6           0       -2.294423    2.035478    1.303609
      5          6           0       -4.111462   -0.844098   -0.261848
      6          1           0       -4.854482    0.884214    0.761295
      7         16           0       -2.565381   -1.472224   -0.702069
      8          1           0       -5.011967   -1.379175   -0.511983
      9          6           0       -0.283395   -0.032927   -0.002081
     10         16           0        0.519605    1.162888   -1.011772
     11          6           0        2.077550    0.576577   -0.516842
     12          6           0        1.954150   -0.470647    0.348716
     13          6           0        0.597790   -0.826599    0.646927
     14          1           0        0.297066   -1.621125    1.310188
     15         16           0        3.511227   -1.058958    0.846692
     16          6           0        4.300235    0.142447   -0.141349
     17          6           0        3.436340    0.938402   -0.805167
     18          1           0        5.375875    0.183635   -0.170187
     19          1           0        3.738484    1.736086   -1.463929
     20          1           0       -2.775117    2.051726    2.282505
     21          1           0       -2.646376    2.906019    0.747933
     22          1           0       -1.222713    2.134434    1.447832
 ---------------------------------------------------------------------

 The electronic state is 1-A.
 Alpha  occ. eigenvalues --  -91.99051 -91.98984 -91.98376 -11.28818 -11.27807
 Alpha  occ. eigenvalues --  -11.27490 -11.27312 -11.27163 -11.27113 -11.25819
 Alpha  occ. eigenvalues --  -11.25787 -11.25496 -11.24303 -11.23565  -8.99234
 Alpha  occ. eigenvalues --   -8.99140  -8.98593  -6.67401  -6.67323  -6.67304
 Alpha  occ. eigenvalues --   -6.67222  -6.67116  -6.67015  -6.66757  -6.66664
 Alpha  occ. eigenvalues --   -6.66473  -1.21750  -1.18561  -1.12865  -1.03884
 Alpha  occ. eigenvalues --   -1.02568  -1.01603  -0.95730  -0.94688  -0.91826
 Alpha  occ. eigenvalues --   -0.82099  -0.77521  -0.76464  -0.72368  -0.70086
 Alpha  occ. eigenvalues --   -0.67357  -0.66878  -0.60627  -0.59110  -0.58835
 Alpha  occ. eigenvalues --   -0.56731  -0.56327  -0.54736  -0.53784  -0.52506
 Alpha  occ. eigenvalues --   -0.51662  -0.51055  -0.49524  -0.47362  -0.46310
 Alpha  occ. eigenvalues --   -0.46017  -0.38861  -0.34244  -0.33549  -0.32247
 Alpha  occ. eigenvalues --   -0.30008
 Alpha virt. eigenvalues --    0.03425   0.03482   0.04176   0.04669   0.04886
 Alpha virt. eigenvalues --    0.05824   0.06030   0.07374   0.08164   0.08671
 Alpha virt. eigenvalues --    0.08742   0.09130   0.10274   0.10501   0.11188

 Mulliken charges:
               1
     1  C    0.636857
     2  C   -1.079594
     3  C    0.874293
     4  C    0.478226
     5  C   -0.270529
     6  H   -0.481385
     7  S    0.325772
     8  H   -0.358220
     9  C    0.320689
    10  S    0.342252
    11  C   -0.747207
    12  C   -0.321760
    13  C    0.241109
    14  H   -0.487271
    15  S    0.624863
    16  C   -0.073670
    17  C    0.654095
    18  H   -0.381756
    19  H   -0.325289
    20  H    0.030880
    21  H    0.106142
    22  H   -0.108495
 Sum of Mulliken charges =  -0.00000

 Dipole moment (field-independent basis, Debye):
    X=             -0.4242    Y=              1.0652    Z=              0.6613  Tot=              1.3236
 Quadrupole moment (field-independent basis, Debye-Ang):
   XX=            -86.6730   YY=           -103.0121   ZZ=           -107.0139
   XY=              1.8205   XZ=             -4.3807   YZ=             -1.2287

 Normal termination of Gaussian 16 at Tue Oct 26 01:02:06 2021.
