 Gaussian 16, Revision C.01,
 Gaussian 16:  ES64L-G16RevC.01  3-Jul-2019

 ---------------------------------
 # opt=modredundant hf/aug-cc-pvdz
 ---------------------------------

 -------------
 pBTTT_-25.pdb
 -------------
 Symbolic Z-matrix:
 Charge =  0 Multiplicity = 1

 SCF Done:  E(RHF) =  -1613.75368808     A.U. after   18 cycles
 SCF Done:  E(RHF) =  -1613.79498742     A.U. after   16 cycles
 SCF Done:  E(RHF) =  -1613.80862418     A.U. after   16 cycles
 SCF Done:  E(RHF) =  -1613.81135333     A.U. after   15 cycles
 SCF Done:  E(RHF) =  -1613.81181584     A.U. after   14 cycles
 SCF Done:  E(RHF) =  -1613.81247458     A.U. after   15 cycles
 SCF Done:  E(RHF) =  -1613.81258082     A.U. after   14 cycles
 SCF Done:  E(RHF) =  -1613.81261356     A.U. after   13 cycles
 SCF Done:  E(RHF) =  -1613.81265555     A.U. after   13 cycles
 SCF Done:  E(RHF) =  -1613.81270046     A.U. after   13 cycles
 SCF Done:  E(RHF) =  -1613.81272220     A.U. after   12 cycles
 SCF Done:  E(RHF) =  -1613.81272885     A.U. after   12 cycles
 SCF Done:  E(RHF) =  -1613.81273006     A.U. after   11 cycles
 SCF Done:  E(RHF) =  -1613.81273037     A.U. after    9 cycles
 SCF Done:  E(RHF) =  -1613.81273041     A.U. after    9 cycles
 Optimization completed.
    -- Stationary point found.

                         Standard orientation:
 ---------------------------------------------------------------------
 Center     Atomic      Atomic             Coordinates (Angstroms)
 Number     Number       Type             X           Y           Z
 ---------------------------------------------------------------------
      1          6           0       -4.037673    0.260339    0.127109
      2          6           0       -2.712888    0.820195    0.229507
      3          6           0       -1.748679   -0.121366    0.034475
      4          6           0       -2.508703    2.282797    0.541598
      5          6           0       -4.052308   -1.059203   -0.143610
      6          1           0       -4.932411    0.848023    0.265488
      7         16           0       -2.454882   -1.687087   -0.302791
      8          1           0       -4.908028   -1.702412   -0.258208
      9          6           0       -0.283630   -0.008379    0.018672
     10         16           0        0.533149    1.504429   -0.368169
     11          6           0        2.086735    0.751737   -0.195109
     12          6           0        1.957950   -0.564804    0.134530
     13          6           0        0.603487   -1.005716    0.262801
     14          1           0        0.311664   -2.007393    0.531789
     15         16           0        3.512584   -1.317899    0.319498
     16          6           0        4.306926    0.188764   -0.059306
     17          6           0        3.445612    1.197329   -0.308339
     18          1           0        5.382644    0.232872   -0.075757
     19          1           0        3.750591    2.199931   -0.560146
     20          1           0       -3.404149    2.687312    1.010282
     21          1           0       -2.320763    2.860678   -0.364439
     22          1           0       -1.674165    2.439737    1.220386
 ---------------------------------------------------------------------

 The electronic state is 1-A.
 Alpha  occ. eigenvalues --  -91.99103 -91.99021 -91.98465 -11.29219 -11.27949
 Alpha  occ. eigenvalues --  -11.27750 -11.27300 -11.27157 -11.27146 -11.25837
 Alpha  occ. eigenvalues --  -11.25647 -11.25563 -11.24431 -11.23773  -8.99288
 Alpha  occ. eigenvalues --   -8.99203  -8.98715  -6.67454  -6.67374  -6.67370
 Alpha  occ. eigenvalues --   -6.67292  -6.67164  -6.67085  -6.66885  -6.66791
 Alpha  occ. eigenvalues --   -6.66598  -1.21832  -1.18685  -1.12903  -1.04066
 Alpha  occ. eigenvalues --   -1.02788  -1.01773  -0.95568  -0.94771  -0.92135
 Alpha  occ. eigenvalues --   -0.82297  -0.77908  -0.76663  -0.71748  -0.70400
 Alpha  occ. eigenvalues --   -0.67576  -0.66959  -0.60508  -0.59223  -0.59023
 Alpha  occ. eigenvalues --   -0.56802  -0.56533  -0.54928  -0.53892  -0.52407
 Alpha  occ. eigenvalues --   -0.51726  -0.51651  -0.49661  -0.47177  -0.46714
 Alpha  occ. eigenvalues --   -0.45928  -0.39265  -0.35428  -0.34302  -0.32325
 Alpha  occ. eigenvalues --   -0.28042
 Alpha virt. eigenvalues --    0.03439   0.03471   0.04058   0.04788   0.04955
 Alpha virt. eigenvalues --    0.05855   0.06097   0.06682   0.07527   0.08525
 Alpha virt. eigenvalues --    0.09488   0.09902   0.10312   0.10470   0.11007

 Mulliken charges:
               1
     1  C    0.516896
     2  C   -0.693855
     3  C    0.724220
     4  C    0.574449
     5  C   -0.339650
     6  H   -0.513012
     7  S    0.463121
     8  H   -0.372197
     9  C   -0.025262
    10  S    0.489104
    11  C   -0.751464
    12  C   -0.209283
    13  C    0.388968
    14  H   -0.533389
    15  S    0.541472
    16  C   -0.134984
    17  C    0.503092
    18  H   -0.386894
    19  H   -0.328953
    20  H   -0.198615
    21  H    0.154968
    22  H    0.131267
 Sum of Mulliken charges =   0.00000

 Dipole moment (field-independent basis, Debye):
    X=             -0.5893    Y=              1.2262    Z=              0.2695  Tot=              1.3869
 Quadrupole moment (field-independent basis, Debye-Ang):
   XX=            -86.0790   YY=            -99.2067   ZZ=           -110.9817
   XY=              2.3835   XZ=             -1.6896   YZ=             -0.5392

 Normal termination of Gaussian 16 at Tue Oct 26 00:59:30 2021.
