 Gaussian 16, Revision C.01,
 Gaussian 16:  ES64L-G16RevC.01  3-Jul-2019

 ---------------------------------
 # opt=modredundant hf/aug-cc-pvdz
 ---------------------------------

 -------------
 pBTTT_-75.pdb
 -------------
 Symbolic Z-matrix:
 Charge =  0 Multiplicity = 1

 SCF Done:  E(RHF) =  -1613.75105868     A.U. after   18 cycles
 SCF Done:  E(RHF) =  -1613.79424938     A.U. after   15 cycles
 SCF Done:  E(RHF) =  -1613.80942623     A.U. after   15 cycles
 SCF Done:  E(RHF) =  -1613.81230052     A.U. after   16 cycles
 SCF Done:  E(RHF) =  -1613.81270216     A.U. after   15 cycles
 SCF Done:  E(RHF) =  -1613.81351506     A.U. after   14 cycles
 SCF Done:  E(RHF) =  -1613.81357267     A.U. after   13 cycles
 SCF Done:  E(RHF) =  -1613.81360003     A.U. after   13 cycles
 SCF Done:  E(RHF) =  -1613.81364106     A.U. after   12 cycles
 SCF Done:  E(RHF) =  -1613.81379134     A.U. after   13 cycles
 SCF Done:  E(RHF) =  -1613.81343001     A.U. after   15 cycles
 SCF Done:  E(RHF) =  -1613.81418196     A.U. after   13 cycles
 SCF Done:  E(RHF) =  -1613.81438600     A.U. after   13 cycles
 SCF Done:  E(RHF) =  -1613.81473628     A.U. after   14 cycles
 SCF Done:  E(RHF) =  -1613.81475376     A.U. after   13 cycles
 SCF Done:  E(RHF) =  -1613.81482923     A.U. after   12 cycles
 SCF Done:  E(RHF) =  -1613.81483224     A.U. after   11 cycles
 SCF Done:  E(RHF) =  -1613.81483272     A.U. after   10 cycles
 SCF Done:  E(RHF) =  -1613.81483275     A.U. after    8 cycles
 Optimization completed.
    -- Stationary point found.

                         Standard orientation:
 ---------------------------------------------------------------------
 Center     Atomic      Atomic             Coordinates (Angstroms)
 Number     Number       Type             X           Y           Z
 ---------------------------------------------------------------------
      1          6           0        3.999225    0.341338   -0.423640
      2          6           0        2.630546    0.764061   -0.598983
      3          6           0        1.757341   -0.107440   -0.036741
      4          6           0        2.265780    2.022610   -1.340182
      5          6           0        4.119930   -0.817927    0.253529
      6          1           0        4.842128    0.897971   -0.804985
      7         16           0        2.582242   -1.450624    0.716440
      8          1           0        5.026465   -1.341448    0.506404
      9          6           0        0.283742   -0.035622    0.006616
     10         16           0       -0.519967    1.087556    1.095910
     11          6           0       -2.077399    0.537358    0.559657
     12          6           0       -1.953256   -0.445982   -0.377776
     13          6           0       -0.596388   -0.780957   -0.697990
     14          1           0       -0.294488   -1.528062   -1.413769
     15         16           0       -3.509866   -0.998059   -0.917094
     16          6           0       -4.299779    0.130255    0.152959
     17          6           0       -3.436574    0.877398    0.872057
     18          1           0       -5.375451    0.169233    0.183729
     19          1           0       -3.739344    1.626429    1.585378
     20          1           0        2.709527    2.016513   -2.336592
     21          1           0        2.643731    2.901249   -0.815310
     22          1           0        1.189879    2.125604   -1.445991
 ---------------------------------------------------------------------

 The electronic state is 1-A.
 Alpha  occ. eigenvalues --  -91.99054 -91.98970 -91.98362 -11.28792 -11.27811
 Alpha  occ. eigenvalues --  -11.27456 -11.27311 -11.27160 -11.27117 -11.25817
 Alpha  occ. eigenvalues --  -11.25801 -11.25495 -11.24293 -11.23563  -8.99237
 Alpha  occ. eigenvalues --   -8.99125  -8.98577  -6.67403  -6.67325  -6.67288
 Alpha  occ. eigenvalues --   -6.67206  -6.67119  -6.67000  -6.66741  -6.66648
 Alpha  occ. eigenvalues --   -6.66458  -1.21743  -1.18552  -1.12860  -1.03883
 Alpha  occ. eigenvalues --   -1.02549  -1.01584  -0.95748  -0.94675  -0.91811
 Alpha  occ. eigenvalues --   -0.82086  -0.77491  -0.76441  -0.72432  -0.70060
 Alpha  occ. eigenvalues --   -0.67348  -0.66874  -0.60641  -0.59096  -0.58827
 Alpha  occ. eigenvalues --   -0.56723  -0.56323  -0.54720  -0.53786  -0.52498
 Alpha  occ. eigenvalues --   -0.51666  -0.51022  -0.49509  -0.47373  -0.46289
 Alpha  occ. eigenvalues --   -0.46008  -0.38840  -0.34216  -0.33340  -0.32236
 Alpha  occ. eigenvalues --   -0.30246
 Alpha virt. eigenvalues --    0.03417   0.03482   0.04178   0.04651   0.04891
 Alpha virt. eigenvalues --    0.05784   0.06070   0.07361   0.08284   0.08697
 Alpha virt. eigenvalues --    0.08715   0.09077   0.10244   0.10433   0.11162

 Mulliken charges:
               1
     1  C    0.673836
     2  C   -1.124663
     3  C    0.885295
     4  C    0.471304
     5  C   -0.281789
     6  H   -0.481919
     7  S    0.313721
     8  H   -0.358510
     9  C    0.364446
    10  S    0.343759
    11  C   -0.752929
    12  C   -0.348253
    13  C    0.228833
    14  H   -0.486353
    15  S    0.629242
    16  C   -0.065613
    17  C    0.670494
    18  H   -0.381703
    19  H   -0.325582
    20  H    0.042590
    21  H    0.097543
    22  H   -0.113751
 Sum of Mulliken charges =  -0.00000

 Dipole moment (field-independent basis, Debye):
    X=              0.4087    Y=              1.0573    Z=             -0.6821  Tot=              1.3229
 Quadrupole moment (field-independent basis, Debye-Ang):
   XX=            -86.7250   YY=           -103.6127   ZZ=           -106.4041
   XY=             -1.6091   XZ=             -4.6840   YZ=              1.2446

 Normal termination of Gaussian 16 at Tue Oct 26 00:11:23 2021.
