 Gaussian 16, Revision C.01,
 Gaussian 16:  ES64L-G16RevC.01  3-Jul-2019

 ---------------------------------
 # opt=modredundant hf/aug-cc-pvdz
 ---------------------------------

 -------------
 pBTTT_-90.pdb
 -------------
 Symbolic Z-matrix:
 Charge =  0 Multiplicity = 1

 SCF Done:  E(RHF) =  -1613.75041260     A.U. after   18 cycles
 SCF Done:  E(RHF) =  -1613.79376909     A.U. after   16 cycles
 SCF Done:  E(RHF) =  -1613.80916036     A.U. after   15 cycles
 SCF Done:  E(RHF) =  -1613.81207885     A.U. after   16 cycles
 SCF Done:  E(RHF) =  -1613.81249187     A.U. after   14 cycles
 SCF Done:  E(RHF) =  -1613.81332702     A.U. after   14 cycles
 SCF Done:  E(RHF) =  -1613.81332173     A.U. after   13 cycles
 SCF Done:  E(RHF) =  -1613.81338903     A.U. after   12 cycles
 SCF Done:  E(RHF) =  -1613.81340643     A.U. after   12 cycles
 SCF Done:  E(RHF) =  -1613.81340966     A.U. after   11 cycles
 SCF Done:  E(RHF) =  -1613.81341302     A.U. after    6 cycles
 SCF Done:  E(RHF) =  -1613.81365666     A.U. after   14 cycles
 SCF Done:  E(RHF) =  -1613.79230875     A.U. after   16 cycles
 SCF Done:  E(RHF) =  -1613.81416290     A.U. after   13 cycles
 SCF Done:  E(RHF) =  -1613.81442233     A.U. after   13 cycles
 SCF Done:  E(RHF) =  -1613.81465140     A.U. after   13 cycles
 SCF Done:  E(RHF) =  -1613.81471184     A.U. after   12 cycles
 SCF Done:  E(RHF) =  -1613.81472515     A.U. after   11 cycles
 SCF Done:  E(RHF) =  -1613.81472560     A.U. after   10 cycles
 SCF Done:  E(RHF) =  -1613.81472567     A.U. after    9 cycles
 Optimization completed.
    -- Stationary point found.

                         Standard orientation:
 ---------------------------------------------------------------------
 Center     Atomic      Atomic             Coordinates (Angstroms)
 Number     Number       Type             X           Y           Z
 ---------------------------------------------------------------------
      1          6           0        3.983441    0.587741   -0.218237
      2          6           0        2.602540    1.002620   -0.150101
      3          6           0        1.759419   -0.056588   -0.086188
      4          6           0        2.194930    2.451471   -0.150955
      5          6           0        4.141447   -0.750630   -0.200262
      6          1           0        4.806907    1.283461   -0.277961
      7         16           0        2.627114   -1.573218   -0.101268
      8          1           0        5.063729   -1.305194   -0.241772
      9          6           0        0.284828   -0.046037   -0.006773
     10         16           0       -0.522461   -0.013257    1.555711
     11          6           0       -2.077777   -0.023353    0.783471
     12          6           0       -1.950657   -0.054401   -0.574467
     13          6           0       -0.592364   -0.071005   -1.033994
     14          1           0       -0.287082   -0.100281   -2.067234
     15         16           0       -3.505567   -0.063990   -1.349812
     16          6           0       -4.298957   -0.025021    0.202971
     17          6           0       -3.438173   -0.006110    1.241734
     18          1           0       -5.374746   -0.019419    0.249852
     19          1           0       -3.743242    0.017854    2.275112
     20          1           0        2.540678    2.944534   -1.060717
     21          1           0        2.640296    2.973458    0.697089
     22          1           0        1.116001    2.560910   -0.091680
 ---------------------------------------------------------------------

 The electronic state is 1-A.
 Alpha  occ. eigenvalues --  -91.99062 -91.98944 -91.98325 -11.28754 -11.27817
 Alpha  occ. eigenvalues --  -11.27415 -11.27311 -11.27155 -11.27131 -11.25818
 Alpha  occ. eigenvalues --  -11.25814 -11.25514 -11.24275 -11.23576  -8.99243
 Alpha  occ. eigenvalues --   -8.99097  -8.98540  -6.67410  -6.67332  -6.67260
 Alpha  occ. eigenvalues --   -6.67179  -6.67126  -6.66972  -6.66704  -6.66612
 Alpha  occ. eigenvalues --   -6.66421  -1.21732  -1.18535  -1.12853  -1.03898
 Alpha  occ. eigenvalues --   -1.02503  -1.01564  -0.95793  -0.94638  -0.91795
 Alpha  occ. eigenvalues --   -0.82070  -0.77417  -0.76405  -0.72596  -0.69999
 Alpha  occ. eigenvalues --   -0.67338  -0.66867  -0.60686  -0.59058  -0.58817
 Alpha  occ. eigenvalues --   -0.56708  -0.56326  -0.54683  -0.53797  -0.52492
 Alpha  occ. eigenvalues --   -0.51692  -0.50963  -0.49483  -0.47384  -0.46248
 Alpha  occ. eigenvalues --   -0.46016  -0.38808  -0.34191  -0.32979  -0.32183
 Alpha  occ. eigenvalues --   -0.30671
 Alpha virt. eigenvalues --    0.03399   0.03485   0.04165   0.04644   0.04906
 Alpha virt. eigenvalues --    0.05667   0.06210   0.07343   0.08426   0.08672
 Alpha virt. eigenvalues --    0.08852   0.08959   0.10140   0.10334   0.10998

 Mulliken charges:
               1
     1  C    0.763521
     2  C   -1.243823
     3  C    0.938705
     4  C    0.474427
     5  C   -0.319811
     6  H   -0.484915
     7  S    0.295703
     8  H   -0.358991
     9  C    0.462337
    10  S    0.349717
    11  C   -0.761754
    12  C   -0.399204
    13  C    0.175687
    14  H   -0.481970
    15  S    0.633903
    16  C   -0.046296
    17  C    0.695211
    18  H   -0.381469
    19  H   -0.327545
    20  H    0.065041
    21  H    0.066778
    22  H   -0.115254
 Sum of Mulliken charges =  -0.00000

 Dipole moment (field-independent basis, Debye):
    X=              0.3741    Y=              1.2687    Z=             -0.0613  Tot=              1.3241
 Quadrupole moment (field-independent basis, Debye-Ang):
   XX=            -86.8395   YY=           -105.9427   ZZ=           -104.0526
   XY=              2.2302   XZ=             -5.0861   YZ=             -0.0303

 Normal termination of Gaussian 16 at Tue Oct 26 00:55:09 2021.
