 Gaussian 16, Revision C.01,
 Gaussian 16:  ES64L-G16RevC.01  3-Jul-2019

 ---------------------------------
 # opt=modredundant hf/aug-cc-pvdz
 ---------------------------------

 -------------
 pBTTT_180.pdb
 -------------
 Symbolic Z-matrix:
 Charge =  0 Multiplicity = 1

 SCF Done:  E(RHF) =  -1613.75237053     A.U. after   18 cycles
 SCF Done:  E(RHF) =  -1613.79301907     A.U. after   16 cycles
 SCF Done:  E(RHF) =  -1613.80627415     A.U. after   16 cycles
 SCF Done:  E(RHF) =  -1613.80915242     A.U. after   16 cycles
 SCF Done:  E(RHF) =  -1613.81000796     A.U. after   14 cycles
 SCF Done:  E(RHF) =  -1613.81013336     A.U. after   14 cycles
 SCF Done:  E(RHF) =  -1613.81041757     A.U. after   15 cycles
 SCF Done:  E(RHF) =  -1613.81041779     A.U. after   12 cycles
 SCF Done:  E(RHF) =  -1613.81042568     A.U. after   11 cycles
 SCF Done:  E(RHF) =  -1613.81042923     A.U. after   11 cycles
 SCF Done:  E(RHF) =  -1613.81042950     A.U. after   10 cycles
 SCF Done:  E(RHF) =  -1613.81043001     A.U. after    9 cycles
 SCF Done:  E(RHF) =  -1613.81043021     A.U. after    9 cycles
 SCF Done:  E(RHF) =  -1613.81043024     A.U. after    9 cycles
 Optimization completed.
    -- Stationary point found.

                         Standard orientation:
 ---------------------------------------------------------------------
 Center     Atomic      Atomic             Coordinates (Angstroms)
 Number     Number       Type             X           Y           Z
 ---------------------------------------------------------------------
      1          6           0       -3.966336    0.775472    0.000029
      2          6           0       -2.576441    1.146753    0.000045
      3          6           0       -1.755600    0.055590   -0.000021
      4          6           0       -2.156397    2.594230    0.000206
      5          6           0       -4.174925   -0.556270   -0.000134
      6          1           0       -4.764963    1.501298    0.000132
      7         16           0       -2.688957   -1.424174   -0.000164
      8          1           0       -5.114500   -1.081362   -0.000158
      9          6           0       -0.287270   -0.010505    0.000027
     10         16           0        0.517641   -1.582412    0.000192
     11          6           0        2.079647   -0.829343    0.000098
     12          6           0        1.964253    0.527867   -0.000039
     13          6           0        0.615547    1.005807   -0.000053
     14          1           0        0.357384    2.047000   -0.000145
     15         16           0        3.527229    1.287752   -0.000148
     16          6           0        4.305545   -0.273976   -0.000034
     17          6           0        3.433155   -1.303681    0.000094
     18          1           0        5.380705   -0.332032   -0.000126
     19          1           0        3.726858   -2.340609    0.000184
     20          1           0       -3.034574    3.236268    0.000463
     21          1           0       -1.566463    2.839692   -0.883355
     22          1           0       -1.566135    2.839409    0.883624
 ---------------------------------------------------------------------

 The electronic state is 1-A.
 Alpha  occ. eigenvalues --  -91.99040 -91.98911 -91.98574 -11.29448 -11.28147
 Alpha  occ. eigenvalues --  -11.27749 -11.27273 -11.27191 -11.27122 -11.25825
 Alpha  occ. eigenvalues --  -11.25723 -11.25610 -11.24517 -11.24288  -8.99221
 Alpha  occ. eigenvalues --   -8.99118  -8.98841  -6.67388  -6.67311  -6.67287
 Alpha  occ. eigenvalues --   -6.67205  -6.67105  -6.67010  -6.66992  -6.66917
 Alpha  occ. eigenvalues --   -6.66724  -1.21818  -1.18808  -1.12872  -1.04443
 Alpha  occ. eigenvalues --   -1.02448  -1.02033  -0.95940  -0.94496  -0.92407
 Alpha  occ. eigenvalues --   -0.82386  -0.77409  -0.77103  -0.72706  -0.70357
 Alpha  occ. eigenvalues --   -0.67533  -0.66932  -0.60609  -0.59564  -0.59129
 Alpha  occ. eigenvalues --   -0.56705  -0.56412  -0.55050  -0.54273  -0.52426
 Alpha  occ. eigenvalues --   -0.52215  -0.51473  -0.49365  -0.47472  -0.47083
 Alpha  occ. eigenvalues --   -0.45549  -0.39371  -0.35769  -0.34482  -0.32205
 Alpha  occ. eigenvalues --   -0.27694
 Alpha virt. eigenvalues --    0.03305   0.03527   0.03924   0.04913   0.05032
 Alpha virt. eigenvalues --    0.05749   0.06317   0.06629   0.07957   0.08248
 Alpha virt. eigenvalues --    0.09606   0.09861   0.10218   0.10799   0.11671

 Mulliken charges:
               1
     1  C    0.669463
     2  C   -0.348786
     3  C   -0.130601
     4  C    0.589101
     5  C   -0.226987
     6  H   -0.553207
     7  S    0.497463
     8  H   -0.393279
     9  C   -0.555977
    10  S    0.610077
    11  C   -0.537061
    12  C   -0.116764
    13  C    1.036052
    14  H   -0.743784
    15  S    0.493570
    16  C   -0.192066
    17  C    0.473160
    18  H   -0.390135
    19  H   -0.339657
    20  H   -0.328575
    21  H    0.243993
    22  H    0.244000
 Sum of Mulliken charges =  -0.00000

 Dipole moment (field-independent basis, Debye):
    X=             -0.5148    Y=              1.1504    Z=              0.0001  Tot=              1.2604
 Quadrupole moment (field-independent basis, Debye-Ang):
   XX=            -86.4565   YY=            -97.9894   ZZ=           -111.7931
   XY=             -7.1821   XZ=             -0.0006   YZ=             -0.0000

 1\1\GINC-CX3-12-16\FOpt\RHF\Aug-CC-pVDZ\C11H8S3\NS5018\26-Oct-2021\0\\
 # opt=modredundant hf/aug-cc-pvdz\\pBTTT_180.pdb\\0,1\C,-4.1783639896,
 -1.3496767674,-0.0518860113\C,-2.8954080538,-1.0004269054,-0.601163626
 3\C,-2.0689965722,-2.0829885707,-0.6987266209\C,-2.5776855003,0.418385
 4734,-0.9982164234\C,-4.3040117732,-2.6570841486,0.2513381396\H,-4.964
 7800064,-0.6266703168,0.1012160561\S,-2.8660303031,-3.527677109,-0.116
 9455162\H,-5.1569198923,-3.1627627597,0.6700999164\C,-0.6895820526,-2.
 1647884491,-1.1996142392\S,0.1472053248,-3.7199367663,-1.208165702\C,1

 Normal termination of Gaussian 16 at Tue Oct 26 01:26:10 2021.
