 Gaussian 16, Revision C.01,
 Gaussian 16:  ES64L-G16RevC.01  3-Jul-2019

 ---------------------------------
 # opt=modredundant hf/aug-cc-pvdz
 ---------------------------------

 -------------
 pBTTT_135.pdb
 -------------
 Symbolic Z-matrix:
 Charge =  0 Multiplicity = 1

 SCF Done:  E(RHF) =  -1613.75280001     A.U. after   18 cycles
 SCF Done:  E(RHF) =  -1613.79484797     A.U. after   16 cycles
 SCF Done:  E(RHF) =  -1613.80891726     A.U. after   15 cycles
 SCF Done:  E(RHF) =  -1613.81186973     A.U. after   15 cycles
 SCF Done:  E(RHF) =  -1613.81242390     A.U. after   14 cycles
 SCF Done:  E(RHF) =  -1613.81332409     A.U. after   14 cycles
 SCF Done:  E(RHF) =  -1613.81349039     A.U. after   14 cycles
 SCF Done:  E(RHF) =  -1613.81374579     A.U. after   13 cycles
 SCF Done:  E(RHF) =  -1613.81400675     A.U. after   13 cycles
 SCF Done:  E(RHF) =  -1613.81418332     A.U. after   14 cycles
 SCF Done:  E(RHF) =  -1613.81431237     A.U. after   13 cycles
 SCF Done:  E(RHF) =  -1613.81433620     A.U. after   12 cycles
 SCF Done:  E(RHF) =  -1613.81434047     A.U. after   11 cycles
 SCF Done:  E(RHF) =  -1613.81434104     A.U. after   10 cycles
 SCF Done:  E(RHF) =  -1613.81434111     A.U. after    8 cycles
 Optimization completed.
    -- Stationary point found.

                         Standard orientation:
 ---------------------------------------------------------------------
 Center     Atomic      Atomic             Coordinates (Angstroms)
 Number     Number       Type             X           Y           Z
 ---------------------------------------------------------------------
      1          6           0       -3.960047    0.744671    0.088926
      2          6           0       -2.570771    1.060861    0.313140
      3          6           0       -1.756311    0.028316   -0.029339
      4          6           0       -2.141243    2.385077    0.888704
      5          6           0       -4.159031   -0.494961   -0.400588
      6          1           0       -4.762605    1.432991    0.307499
      7         16           0       -2.670642   -1.337272   -0.628130
      8          1           0       -5.096452   -0.967849   -0.639419
      9          6           0       -0.288300   -0.032337    0.009843
     10         16           0        0.528900   -1.444311    0.672538
     11          6           0        2.079978   -0.747889    0.320788
     12          6           0        1.946419    0.481195   -0.255142
     13          6           0        0.587793    0.893652   -0.445671
     14          1           0        0.285093    1.813153   -0.917988
     15         16           0        3.497974    1.179058   -0.608265
     16          6           0        4.298313   -0.227961    0.042473
     17          6           0        3.441396   -1.165948    0.496870
     18          1           0        5.374156   -0.272527    0.047438
     19          1           0        3.750470   -2.102095    0.932361
     20          1           0       -2.826685    2.689338    1.679513
     21          1           0       -2.153292    3.166246    0.126075
     22          1           0       -1.139576    2.333081    1.306193
 ---------------------------------------------------------------------

 The electronic state is 1-A.
 Alpha  occ. eigenvalues --  -91.99069 -91.98977 -91.98426 -11.28983 -11.27781
 Alpha  occ. eigenvalues --  -11.27723 -11.27319 -11.27170 -11.27158 -11.25821
 Alpha  occ. eigenvalues --  -11.25754 -11.25586 -11.24394 -11.23819  -8.99249
 Alpha  occ. eigenvalues --   -8.99147  -8.98659  -6.67417  -6.67339  -6.67311
 Alpha  occ. eigenvalues --   -6.67230  -6.67132  -6.67021  -6.66825  -6.66732
 Alpha  occ. eigenvalues --   -6.66540  -1.21792  -1.18643  -1.12888  -1.04116
 Alpha  occ. eigenvalues --   -1.02441  -1.01813  -0.95887  -0.94576  -0.92011
 Alpha  occ. eigenvalues --   -0.82241  -0.77352  -0.76708  -0.72758  -0.70029
 Alpha  occ. eigenvalues --   -0.67426  -0.66885  -0.60737  -0.59156  -0.58942
 Alpha  occ. eigenvalues --   -0.56703  -0.56337  -0.54670  -0.54050  -0.52540
 Alpha  occ. eigenvalues --   -0.51932  -0.51115  -0.49471  -0.47354  -0.46560
 Alpha  occ. eigenvalues --   -0.46085  -0.39020  -0.34815  -0.34149  -0.32275
 Alpha  occ. eigenvalues --   -0.28904
 Alpha virt. eigenvalues --    0.03387   0.03524   0.04059   0.04836   0.04941
 Alpha virt. eigenvalues --    0.05478   0.06698   0.07282   0.07711   0.08444
 Alpha virt. eigenvalues --    0.08757   0.09494   0.10173   0.10752   0.11164

 Mulliken charges:
               1
     1  C    0.571274
     2  C   -0.854683
     3  C    0.704484
     4  C    0.504513
     5  C   -0.282149
     6  H   -0.482517
     7  S    0.391904
     8  H   -0.359816
     9  C    0.236144
    10  S    0.407634
    11  C   -0.737393
    12  C   -0.335319
    13  C    0.310260
    14  H   -0.479824
    15  S    0.601671
    16  C   -0.068070
    17  C    0.576023
    18  H   -0.381584
    19  H   -0.328196
    20  H   -0.077727
    21  H    0.118045
    22  H   -0.034674
 Sum of Mulliken charges =  -0.00000

 Dipole moment (field-independent basis, Debye):
    X=             -0.3974    Y=              1.1208    Z=              0.4012  Tot=              1.2550
 Quadrupole moment (field-independent basis, Debye-Ang):
   XX=            -86.7597   YY=           -100.4946   ZZ=           -109.4438
   XY=             -6.6443   XZ=              1.4444   YZ=             -0.9028

 1\1\GINC-CX3-12-27\FOpt\RHF\Aug-CC-pVDZ\C11H8S3\NS5018\26-Oct-2021\0\\
 # opt=modredundant hf/aug-cc-pvdz\\pBTTT_135.pdb\\0,1\C,-4.2073143134,
 -1.3001417487,-0.1968986747\C,-2.86119357,-1.0374760435,-0.6433300632\
 C,-2.0981571517,-2.161975011,-0.6354212096\C,-2.4093260233,0.346544195
 1,-1.0301371339\C,-4.4233582681,-2.5876185303,0.1372213857\H,-4.963293
 8691,-0.5327240948,-0.1246300086\S,-3.0091774267,-3.5503398061,-0.0859
 947817\H,-5.3328777896,-3.0301764581,0.5064611502\C,-0.6984828794,-2.3
 221845287,-1.0543657676\S,0.4317523767,-3.2348243313,-0.0592230684\C,1

 Normal termination of Gaussian 16 at Tue Oct 26 01:13:48 2021.
