 Gaussian 16, Revision C.01,
 Gaussian 16:  ES64L-G16RevC.01  3-Jul-2019

 ---------------------------------
 # opt=modredundant hf/aug-cc-pvdz
 ---------------------------------

 ------------
 pBTTT_60.pdb
 ------------
 Symbolic Z-matrix:
 Charge =  0 Multiplicity = 1

 SCF Done:  E(RHF) =  -1613.75157374     A.U. after   18 cycles
 SCF Done:  E(RHF) =  -1613.79429107     A.U. after   15 cycles
 SCF Done:  E(RHF) =  -1613.80918108     A.U. after   16 cycles
 SCF Done:  E(RHF) =  -1613.81214616     A.U. after   17 cycles
 SCF Done:  E(RHF) =  -1613.81260141     A.U. after   14 cycles
 SCF Done:  E(RHF) =  -1613.81343392     A.U. after   13 cycles
 SCF Done:  E(RHF) =  -1613.81351891     A.U. after   13 cycles
 SCF Done:  E(RHF) =  -1613.81357806     A.U. after   14 cycles
 SCF Done:  E(RHF) =  -1613.81367406     A.U. after   12 cycles
 SCF Done:  E(RHF) =  -1613.81399247     A.U. after   14 cycles
 SCF Done:  E(RHF) =  -1613.81426715     A.U. after   13 cycles
 SCF Done:  E(RHF) =  -1613.81429904     A.U. after   14 cycles
 SCF Done:  E(RHF) =  -1613.81444549     A.U. after   12 cycles
 SCF Done:  E(RHF) =  -1613.81455617     A.U. after   13 cycles
 SCF Done:  E(RHF) =  -1613.81470233     A.U. after   14 cycles
 SCF Done:  E(RHF) =  -1613.81471384     A.U. after   11 cycles
 SCF Done:  E(RHF) =  -1613.81471396     A.U. after   13 cycles
 SCF Done:  E(RHF) =  -1613.81472327     A.U. after   11 cycles
 SCF Done:  E(RHF) =  -1613.81472355     A.U. after   10 cycles
 SCF Done:  E(RHF) =  -1613.81472362     A.U. after    9 cycles
 Optimization completed.
    -- Stationary point found.

                         Standard orientation:
 ---------------------------------------------------------------------
 Center     Atomic      Atomic             Coordinates (Angstroms)
 Number     Number       Type             X           Y           Z
 ---------------------------------------------------------------------
      1          6           0        4.014329    0.308960    0.331272
      2          6           0        2.660866    0.776023    0.509541
      3          6           0        1.753686   -0.115932    0.036967
      4          6           0        2.354112    2.090845    1.177565
      5          6           0        4.094114   -0.900786   -0.257827
      6          1           0        4.878054    0.872134    0.651590
      7         16           0        2.531907   -1.527788   -0.637215
      8          1           0        4.982384   -1.463755   -0.489596
      9          6           0        0.282818   -0.027701    0.006782
     10         16           0       -0.519839    1.272994   -0.864394
     11          6           0       -2.078366    0.634175   -0.441828
     12          6           0       -1.955841   -0.504279    0.299633
     13          6           0       -0.600447   -0.890062    0.560328
     14          1           0       -0.301961   -1.752328    1.133859
     15         16           0       -3.513570   -1.145006    0.725500
     16          6           0       -4.301393    0.160521   -0.121435
     17          6           0       -3.436508    1.026590   -0.689380
     18          1           0       -5.376986    0.204469   -0.147485
     19          1           0       -3.737775    1.893730   -1.254082
     20          1           0        2.919491    2.179157    2.105754
     21          1           0        1.298180    2.186285    1.411391
     22          1           0        2.638417    2.926989    0.536619
 ---------------------------------------------------------------------

 The electronic state is 1-A.
 Alpha  occ. eigenvalues --  -91.99046 -91.99017 -91.98403 -11.28886 -11.27798
 Alpha  occ. eigenvalues --  -11.27581 -11.27314 -11.27167 -11.27108 -11.25824
 Alpha  occ. eigenvalues --  -11.25749 -11.25508 -11.24326 -11.23578  -8.99229
 Alpha  occ. eigenvalues --   -8.99177  -8.98624  -6.67395  -6.67341  -6.67317
 Alpha  occ. eigenvalues --   -6.67260  -6.67111  -6.67052  -6.66788  -6.66695
 Alpha  occ. eigenvalues --   -6.66504  -1.21768  -1.18583  -1.12877  -1.03895
 Alpha  occ. eigenvalues --   -1.02612  -1.01649  -0.95691  -0.94715  -0.91870
 Alpha  occ. eigenvalues --   -0.82136  -0.77591  -0.76517  -0.72230  -0.70146
 Alpha  occ. eigenvalues --   -0.67384  -0.66889  -0.60600  -0.59133  -0.58858
 Alpha  occ. eigenvalues --   -0.56750  -0.56345  -0.54770  -0.53786  -0.52520
 Alpha  occ. eigenvalues --   -0.51659  -0.51142  -0.49561  -0.47330  -0.46369
 Alpha  occ. eigenvalues --   -0.46036  -0.38918  -0.34381  -0.33908  -0.32269
 Alpha  occ. eigenvalues --   -0.29510
 Alpha virt. eigenvalues --    0.03438   0.03484   0.04164   0.04719   0.04871
 Alpha virt. eigenvalues --    0.05897   0.05963   0.07402   0.07867   0.08635
 Alpha virt. eigenvalues --    0.08848   0.09252   0.10330   0.10589   0.11239

 Mulliken charges:
               1
     1  C    0.576849
     2  C   -1.008294
     3  C    0.882721
     4  C    0.504020
     5  C   -0.264187
     6  H   -0.482877
     7  S    0.351289
     8  H   -0.357943
     9  C    0.229777
    10  S    0.335913
    11  C   -0.725606
    12  C   -0.276976
    13  C    0.260990
    14  H   -0.490505
    15  S    0.611714
    16  C   -0.086959
    17  C    0.616436
    18  H   -0.382271
    19  H   -0.325492
    20  H   -0.003273
    21  H   -0.084022
    22  H    0.118695
 Sum of Mulliken charges =  -0.00000

 Dipole moment (field-independent basis, Debye):
    X=              0.4569    Y=              1.1000    Z=              0.5907  Tot=              1.3295
 Quadrupole moment (field-independent basis, Debye-Ang):
   XX=            -86.5568   YY=           -101.9400   ZZ=           -108.1086
   XY=             -2.0792   XZ=              3.7877   YZ=             -1.1445

 Normal termination of Gaussian 16 at Tue Oct 26 01:48:21 2021.
