 Gaussian 16, Revision C.01,
 Gaussian 16:  ES64L-G16RevC.01  3-Jul-2019

 ---------------------------------
 # opt=modredundant hf/aug-cc-pvdz
 ---------------------------------

 --------------
 pBTTT_-155.pdb
 --------------
 Symbolic Z-matrix:
 Charge =  0 Multiplicity = 1

 SCF Done:  E(RHF) =  -1613.75185236     A.U. after   18 cycles
 SCF Done:  E(RHF) =  -1613.79308889     A.U. after   16 cycles
 SCF Done:  E(RHF) =  -1613.80720975     A.U. after   15 cycles
 SCF Done:  E(RHF) =  -1613.81040462     A.U. after   16 cycles
 SCF Done:  E(RHF) =  -1613.81133096     A.U. after   14 cycles
 SCF Done:  E(RHF) =  -1613.81217276     A.U. after   14 cycles
 SCF Done:  E(RHF) =  -1613.81240993     A.U. after   14 cycles
 SCF Done:  E(RHF) =  -1613.81251067     A.U. after   13 cycles
 SCF Done:  E(RHF) =  -1613.81263199     A.U. after   13 cycles
 SCF Done:  E(RHF) =  -1613.81270269     A.U. after   13 cycles
 SCF Done:  E(RHF) =  -1613.81272041     A.U. after   11 cycles
 SCF Done:  E(RHF) =  -1613.81272308     A.U. after   11 cycles
 SCF Done:  E(RHF) =  -1613.81272406     A.U. after   10 cycles
 SCF Done:  E(RHF) =  -1613.81272439     A.U. after    9 cycles
 Optimization completed.
    -- Stationary point found.

                         Standard orientation:
 ---------------------------------------------------------------------
 Center     Atomic      Atomic             Coordinates (Angstroms)
 Number     Number       Type             X           Y           Z
 ---------------------------------------------------------------------
      1          6           0        3.960721    0.765632    0.010988
      2          6           0        2.574814    1.110426    0.198735
      3          6           0        1.755791    0.037225    0.019317
      4          6           0        2.154898    2.505230    0.585358
      5          6           0        4.159349   -0.529944   -0.303065
      6          1           0        4.763082    1.478832    0.124666
      7         16           0        2.671050   -1.393674   -0.399635
      8          1           0        5.094969   -1.032218   -0.480250
      9          6           0        0.288904   -0.020046    0.054502
     10         16           0       -0.528140   -1.532044    0.447462
     11          6           0       -2.080690   -0.796766    0.201550
     12          6           0       -1.950255    0.513590   -0.151031
     13          6           0       -0.594664    0.963251   -0.249090
     14          1           0       -0.306670    1.950926   -0.562683
     15         16           0       -3.503604    1.253100   -0.395289
     16          6           0       -4.299702   -0.250165   -0.006997
     17          6           0       -3.439885   -1.247351    0.288449
     18          1           0       -5.375105   -0.301592   -0.022868
     19          1           0       -3.745903   -2.246515    0.552177
     20          1           0        2.955485    2.995997    1.136804
     21          1           0        1.267433    2.494507    1.214015
     22          1           0        1.942127    3.115460   -0.294767
 ---------------------------------------------------------------------

 The electronic state is 1-A.
 Alpha  occ. eigenvalues --  -91.99064 -91.98961 -91.98507 -11.29200 -11.27925
 Alpha  occ. eigenvalues --  -11.27768 -11.27318 -11.27161 -11.27161 -11.25830
 Alpha  occ. eigenvalues --  -11.25706 -11.25618 -11.24463 -11.24043  -8.99245
 Alpha  occ. eigenvalues --   -8.99150  -8.98754  -6.67412  -6.67335  -6.67316
 Alpha  occ. eigenvalues --   -6.67235  -6.67128  -6.67024  -6.66921  -6.66828
 Alpha  occ. eigenvalues --   -6.66635  -1.21823  -1.18726  -1.12895  -1.04277
 Alpha  occ. eigenvalues --   -1.02445  -1.01938  -0.95916  -0.94547  -0.92195
 Alpha  occ. eigenvalues --   -0.82328  -0.77379  -0.76915  -0.72735  -0.70166
 Alpha  occ. eigenvalues --   -0.67477  -0.66914  -0.60702  -0.59311  -0.59049
 Alpha  occ. eigenvalues --   -0.56716  -0.56348  -0.54797  -0.54202  -0.52495
 Alpha  occ. eigenvalues --   -0.52083  -0.51305  -0.49431  -0.47398  -0.46843
 Alpha  occ. eigenvalues --   -0.45875  -0.39209  -0.35392  -0.34292  -0.32294
 Alpha  occ. eigenvalues --   -0.28180
 Alpha virt. eigenvalues --    0.03363   0.03529   0.04010   0.04924   0.04989
 Alpha virt. eigenvalues --    0.05476   0.06736   0.06822   0.07863   0.08341
 Alpha virt. eigenvalues --    0.08781   0.09938   0.10056   0.10788   0.10902

 Mulliken charges:
               1
     1  C    0.491428
     2  C   -0.516662
     3  C    0.387761
     4  C    0.502241
     5  C   -0.277471
     6  H   -0.499645
     7  S    0.478392
     8  H   -0.369649
     9  C    0.007653
    10  S    0.457273
    11  C   -0.649527
    12  C   -0.351979
    13  C    0.540765
    14  H   -0.545549
    15  S    0.559706
    16  C   -0.100085
    17  C    0.516446
    18  H   -0.385373
    19  H   -0.329789
    20  H   -0.199977
    21  H    0.107311
    22  H    0.176730
 Sum of Mulliken charges =  -0.00000

 Dipole moment (field-independent basis, Debye):
    X=              0.4398    Y=              1.1333    Z=              0.1728  Tot=              1.2279
 Quadrupole moment (field-independent basis, Debye-Ang):
   XX=            -86.6162   YY=            -99.0809   ZZ=           -110.8080
   XY=              7.0245   XZ=             -0.9893   YZ=             -0.4720

 Normal termination of Gaussian 16 at Mon Oct 25 22:50:51 2021.
