 Gaussian 16, Revision C.01,
 Gaussian 16:  ES64L-G16RevC.01  3-Jul-2019

 -------------------------------------
 # opt=modredundant b3lyp/6-311+g(d,p)
 -------------------------------------

 -------------
 pBTTT_-10.pdb
 -------------
 Symbolic Z-matrix:
 Charge =  0 Multiplicity = 1

 SCF Done:  E(RB3LYP) =  -1618.67844269     A.U. after   16 cycles
 SCF Done:  E(RB3LYP) =  -1618.70669910     A.U. after   14 cycles
 SCF Done:  E(RB3LYP) =  -1618.71390446     A.U. after   15 cycles
 SCF Done:  E(RB3LYP) =  -1618.71559435     A.U. after   14 cycles
 SCF Done:  E(RB3LYP) =  -1618.71590552     A.U. after   13 cycles
 SCF Done:  E(RB3LYP) =  -1618.71618165     A.U. after   12 cycles
 SCF Done:  E(RB3LYP) =  -1618.71623657     A.U. after   12 cycles
 SCF Done:  E(RB3LYP) =  -1618.71623392     A.U. after   11 cycles
 SCF Done:  E(RB3LYP) =  -1618.71624078     A.U. after   11 cycles
 SCF Done:  E(RB3LYP) =  -1618.71624463     A.U. after   10 cycles
 SCF Done:  E(RB3LYP) =  -1618.71624694     A.U. after   11 cycles
 SCF Done:  E(RB3LYP) =  -1618.71624812     A.U. after    9 cycles
 SCF Done:  E(RB3LYP) =  -1618.71624846     A.U. after    9 cycles
 Optimization completed.
    -- Stationary point found.

                         Standard orientation:
 ---------------------------------------------------------------------
 Center     Atomic      Atomic             Coordinates (Angstroms)
 Number     Number       Type             X           Y           Z
 ---------------------------------------------------------------------
      1          6           0       -4.042609    0.271006    0.056702
      2          6           0       -2.732257    0.839782    0.091790
      3          6           0       -1.741273   -0.125733    0.011659
      4          6           0       -2.519118    2.325401    0.213514
      5          6           0       -4.056753   -1.087257   -0.052038
      6          1           0       -4.942633    0.869978    0.116013
      7         16           0       -2.454705   -1.729582   -0.125130
      8          1           0       -4.906436   -1.751071   -0.094140
      9          6           0       -0.294447   -0.015192    0.007544
     10         16           0        0.530428    1.551933   -0.146054
     11          6           0        2.091718    0.785912   -0.080813
     12          6           0        1.957546   -0.589597    0.050062
     13          6           0        0.617754   -1.044646    0.104588
     14          1           0        0.328155   -2.080235    0.217619
     15         16           0        3.523139   -1.354516    0.126788
     16          6           0        4.315120    0.199147   -0.019777
     17          6           0        3.439232    1.241979   -0.120077
     18          1           0        5.393587    0.239482   -0.024393
     19          1           0        3.746487    2.273850   -0.218327
     20          1           0       -3.471873    2.826930    0.393188
     21          1           0       -2.089750    2.753095   -0.698120
     22          1           0       -1.848809    2.577803    1.039561
 ---------------------------------------------------------------------

 The electronic state is 1-A.
 Alpha  occ. eigenvalues --  -88.88432 -88.88387 -88.88064 -10.22689 -10.21855
 Alpha  occ. eigenvalues --  -10.21161 -10.21044 -10.20977 -10.20567 -10.19461
 Alpha  occ. eigenvalues --  -10.19349 -10.19116 -10.18207 -10.17756  -7.97009
 Alpha  occ. eigenvalues --   -7.96961  -7.96697  -5.93333  -5.93275  -5.92999
 Alpha  occ. eigenvalues --   -5.92967  -5.92910  -5.92618  -5.92529  -5.92507
 Alpha  occ. eigenvalues --   -5.92271  -0.91712  -0.89320  -0.84937  -0.77964
 Alpha  occ. eigenvalues --   -0.77274  -0.75802  -0.71424  -0.70485  -0.68296
 Alpha  occ. eigenvalues --   -0.61545  -0.58043  -0.57017  -0.53379  -0.52425
 Alpha  occ. eigenvalues --   -0.50244  -0.49793  -0.44551  -0.43956  -0.43736
 Alpha  occ. eigenvalues --   -0.42023  -0.41678  -0.40285  -0.39527  -0.38789
 Alpha  occ. eigenvalues --   -0.38175  -0.38011  -0.36689  -0.34732  -0.34459
 Alpha  occ. eigenvalues --   -0.33763  -0.29359  -0.26715  -0.25582  -0.23825
 Alpha  occ. eigenvalues --   -0.20378
 Alpha virt. eigenvalues --   -0.06271  -0.01575  -0.00578  -0.00357   0.00224
 Alpha virt. eigenvalues --    0.00452   0.01474   0.01504   0.02080   0.02545
 Alpha virt. eigenvalues --    0.03042   0.03256   0.03746   0.04475   0.04821

 Mulliken charges:
               1
     1  C    0.068699
     2  C    0.271069
     3  C    0.619236
     4  C   -0.977927
     5  C   -0.154732
     6  H    0.120177
     7  S   -0.618817
     8  H    0.159905
     9  C    0.390550
    10  S   -0.652369
    11  C    0.232650
    12  C    0.205030
    13  C    0.093100
    14  H    0.137821
    15  S   -0.400410
    16  C   -0.143510
    17  C   -0.140622
    18  H    0.166910
    19  H    0.133445
    20  H    0.144625
    21  H    0.176259
    22  H    0.168910
 Sum of Mulliken charges =  -0.00000

 Dipole moment (field-independent basis, Debye):
    X=             -0.5243    Y=              0.9372    Z=              0.0980  Tot=              1.0783
 Quadrupole moment (field-independent basis, Debye-Ang):
   XX=            -87.7205   YY=            -97.3120   ZZ=           -109.9033
   XY=              1.8709   XZ=             -0.5301   YZ=             -0.2135

 Normal termination of Gaussian 16 at Sun Oct 17 00:39:48 2021.
