 Gaussian 16, Revision C.01,
 Gaussian 16:  ES64L-G16RevC.01  3-Jul-2019

 -------------------------------------
 # opt=modredundant b3lyp/6-311+g(d,p)
 -------------------------------------

 -------------
 pBTTT_-25.pdb
 -------------
 Symbolic Z-matrix:
 Charge =  0 Multiplicity = 1

 SCF Done:  E(RB3LYP) =  -1618.67837075     A.U. after   16 cycles
 SCF Done:  E(RB3LYP) =  -1618.70697258     A.U. after   14 cycles
 SCF Done:  E(RB3LYP) =  -1618.71431968     A.U. after   15 cycles
 SCF Done:  E(RB3LYP) =  -1618.71604855     A.U. after   15 cycles
 SCF Done:  E(RB3LYP) =  -1618.71620695     A.U. after   13 cycles
 SCF Done:  E(RB3LYP) =  -1618.71661653     A.U. after   12 cycles
 SCF Done:  E(RB3LYP) =  -1618.71665792     A.U. after   11 cycles
 SCF Done:  E(RB3LYP) =  -1618.71668386     A.U. after   11 cycles
 SCF Done:  E(RB3LYP) =  -1618.71670447     A.U. after   11 cycles
 SCF Done:  E(RB3LYP) =  -1618.71673058     A.U. after   11 cycles
 SCF Done:  E(RB3LYP) =  -1618.71674346     A.U. after   11 cycles
 SCF Done:  E(RB3LYP) =  -1618.71675030     A.U. after   10 cycles
 SCF Done:  E(RB3LYP) =  -1618.71675114     A.U. after    9 cycles
 Optimization completed.
    -- Stationary point found.

                         Standard orientation:
 ---------------------------------------------------------------------
 Center     Atomic      Atomic             Coordinates (Angstroms)
 Number     Number       Type             X           Y           Z
 ---------------------------------------------------------------------
      1          6           0       -4.039148    0.270324    0.134930
      2          6           0       -2.726930    0.829646    0.220595
      3          6           0       -1.741975   -0.122863    0.023129
      4          6           0       -2.503278    2.289181    0.517458
      5          6           0       -4.057282   -1.067685   -0.126628
      6          1           0       -4.937540    0.858078    0.276268
      7         16           0       -2.457939   -1.697826   -0.296075
      8          1           0       -4.909911   -1.721149   -0.229417
      9          6           0       -0.293927   -0.014647    0.018265
     10         16           0        0.526223    1.514701   -0.356079
     11          6           0        2.089064    0.765541   -0.192753
     12          6           0        1.956364   -0.579932    0.123725
     13          6           0        0.616122   -1.022790    0.249931
     14          1           0        0.322646   -2.029664    0.512960
     15         16           0        3.522696   -1.324953    0.305948
     16          6           0        4.313059    0.195209   -0.048614
     17          6           0        3.436432    1.214033   -0.289626
     18          1           0        5.391512    0.235207   -0.059843
     19          1           0        3.742794    2.223352   -0.526728
     20          1           0       -3.405633    2.727071    0.949275
     21          1           0       -2.266577    2.856985   -0.388586
     22          1           0       -1.683995    2.443272    1.222893
 ---------------------------------------------------------------------

 The electronic state is 1-A.
 Alpha  occ. eigenvalues --  -88.88411 -88.88406 -88.88042 -10.22592 -10.21719
 Alpha  occ. eigenvalues --  -10.21167 -10.21089 -10.21008 -10.20512 -10.19388
 Alpha  occ. eigenvalues --  -10.19363 -10.19159 -10.18165 -10.17653  -7.96985
 Alpha  occ. eigenvalues --   -7.96984  -7.96669  -5.93307  -5.93298  -5.92968
 Alpha  occ. eigenvalues --   -5.92942  -5.92933  -5.92588  -5.92531  -5.92507
 Alpha  occ. eigenvalues --   -5.92249  -0.91712  -0.89280  -0.84945  -0.77852
 Alpha  occ. eigenvalues --   -0.77264  -0.75766  -0.71438  -0.70476  -0.68207
 Alpha  occ. eigenvalues --   -0.61502  -0.57946  -0.56988  -0.53488  -0.52358
 Alpha  occ. eigenvalues --   -0.50162  -0.49770  -0.44537  -0.43927  -0.43644
 Alpha  occ. eigenvalues --   -0.42033  -0.41630  -0.40205  -0.39507  -0.38905
 Alpha  occ. eigenvalues --   -0.38054  -0.37801  -0.36713  -0.34799  -0.34321
 Alpha  occ. eigenvalues --   -0.33887  -0.29287  -0.26508  -0.25503  -0.23811
 Alpha  occ. eigenvalues --   -0.20609
 Alpha virt. eigenvalues --   -0.06105  -0.01670  -0.00572  -0.00396   0.00141
 Alpha virt. eigenvalues --    0.00476   0.01243   0.01473   0.02051   0.02611
 Alpha virt. eigenvalues --    0.03012   0.03379   0.03829   0.04249   0.04806

 Mulliken charges:
               1
     1  C    0.037514
     2  C    0.237689
     3  C    0.555242
     4  C   -0.955811
     5  C   -0.086867
     6  H    0.121599
     7  S   -0.542876
     8  H    0.159923
     9  C    0.422198
    10  S   -0.561253
    11  C    0.343883
    12  C    0.178307
    13  C   -0.067414
    14  H    0.140555
    15  S   -0.404804
    16  C   -0.134941
    17  C   -0.229891
    18  H    0.167027
    19  H    0.134575
    20  H    0.143662
    21  H    0.176154
    22  H    0.165531
 Sum of Mulliken charges =  -0.00000

 Dipole moment (field-independent basis, Debye):
    X=             -0.4568    Y=              0.9120    Z=              0.2199  Tot=              1.0435
 Quadrupole moment (field-independent basis, Debye-Ang):
   XX=            -87.8474   YY=            -97.8083   ZZ=           -109.3302
   XY=              1.9261   XZ=             -1.2721   YZ=             -0.5153

 Normal termination of Gaussian 16 at Sun Oct 17 00:36:19 2021.
