 Gaussian 16, Revision C.01,
 Gaussian 16:  ES64L-G16RevC.01  3-Jul-2019

 -------------------------------------
 # opt=modredundant b3lyp/6-311+g(d,p)
 -------------------------------------

 --------------
 pBTTT_-120.pdb
 --------------
 Symbolic Z-matrix:
 Charge =  0 Multiplicity = 1

 SCF Done:  E(RB3LYP) =  -1618.67470000     A.U. after   17 cycles
 SCF Done:  E(RB3LYP) =  -1618.70460863     A.U. after   15 cycles
 SCF Done:  E(RB3LYP) =  -1618.71311211     A.U. after   14 cycles
 SCF Done:  E(RB3LYP) =  -1618.71492526     A.U. after   15 cycles
 SCF Done:  E(RB3LYP) =  -1618.71535109     A.U. after   15 cycles
 SCF Done:  E(RB3LYP) =  -1618.71593376     A.U. after   13 cycles
 SCF Done:  E(RB3LYP) =  -1618.71585187     A.U. after   13 cycles
 SCF Done:  E(RB3LYP) =  -1618.71610235     A.U. after   13 cycles
 SCF Done:  E(RB3LYP) =  -1618.71620398     A.U. after   12 cycles
 SCF Done:  E(RB3LYP) =  -1618.71668887     A.U. after   14 cycles
 SCF Done:  E(RB3LYP) =  -1618.71611653     A.U. after   16 cycles
 SCF Done:  E(RB3LYP) =  -1618.71703471     A.U. after   16 cycles
 SCF Done:  E(RB3LYP) =  -1618.71669991     A.U. after   14 cycles
 SCF Done:  E(RB3LYP) =  -1618.71706499     A.U. after   14 cycles
 SCF Done:  E(RB3LYP) =  -1618.71707282     A.U. after   12 cycles
 SCF Done:  E(RB3LYP) =  -1618.71707358     A.U. after   12 cycles
 SCF Done:  E(RB3LYP) =  -1618.71707420     A.U. after   10 cycles
 SCF Done:  E(RB3LYP) =  -1618.71707456     A.U. after   11 cycles
 SCF Done:  E(RB3LYP) =  -1618.71707457     A.U. after   10 cycles
 Optimization completed.
    -- Stationary point found.

                         Standard orientation:
 ---------------------------------------------------------------------
 Center     Atomic      Atomic             Coordinates (Angstroms)
 Number     Number       Type             X           Y           Z
 ---------------------------------------------------------------------
      1          6           0        3.955740    0.741974    0.177665
      2          6           0        2.570270    1.038596    0.378200
      3          6           0        1.752951    0.031125   -0.089649
      4          6           0        2.094429    2.300003    1.044848
      5          6           0        4.178498   -0.466127   -0.414525
      6          1           0        4.753439    1.408415    0.481730
      7         16           0        2.698334   -1.286784   -0.764690
      8          1           0        5.122964   -0.924821   -0.664915
      9          6           0        0.296996   -0.046475   -0.060483
     10         16           0       -0.511708   -1.371521    0.796412
     11          6           0       -2.077466   -0.720524    0.400122
     12          6           0       -1.949715    0.453997   -0.330347
     13          6           0       -0.607106    0.836056   -0.595829
     14          1           0       -0.307696    1.701683   -1.170152
     15         16           0       -3.518003    1.104676   -0.728569
     16          6           0       -4.303731   -0.221064    0.098472
     17          6           0       -3.425046   -1.110778    0.645885
     18          1           0       -5.382124   -0.255574    0.126465
     19          1           0       -3.728772   -1.992017    1.193552
     20          1           0        2.694793    2.515755    1.933084
     21          1           0        1.049797    2.221562    1.348151
     22          1           0        2.184715    3.162365    0.375480
 ---------------------------------------------------------------------

 The electronic state is 1-A.
 Alpha  occ. eigenvalues --  -88.88469 -88.88264 -88.87941 -10.22263 -10.21348
 Alpha  occ. eigenvalues --  -10.21168 -10.21111 -10.21071 -10.20495 -10.19363
 Alpha  occ. eigenvalues --  -10.19353 -10.19316 -10.18075 -10.17466  -7.97043
 Alpha  occ. eigenvalues --   -7.96835  -7.96557  -5.93355  -5.93151  -5.92990
 Alpha  occ. eigenvalues --   -5.92848  -5.92789  -5.92592  -5.92472  -5.92368
 Alpha  occ. eigenvalues --   -5.92150  -0.91658  -0.89170  -0.84919  -0.77781
 Alpha  occ. eigenvalues --   -0.76978  -0.75683  -0.71434  -0.70548  -0.67963
 Alpha  occ. eigenvalues --   -0.61376  -0.57472  -0.56886  -0.54248  -0.52043
 Alpha  occ. eigenvalues --   -0.49964  -0.49704  -0.44599  -0.43730  -0.43589
 Alpha  occ. eigenvalues --   -0.42063  -0.41463  -0.39982  -0.39594  -0.39027
 Alpha  occ. eigenvalues --   -0.37721  -0.37488  -0.36511  -0.34925  -0.34274
 Alpha  occ. eigenvalues --   -0.33809  -0.29113  -0.25583  -0.25204  -0.23744
 Alpha  occ. eigenvalues --   -0.21704
 Alpha virt. eigenvalues --   -0.05198  -0.02580  -0.00569  -0.00326   0.00227
 Alpha virt. eigenvalues --    0.00623   0.00745   0.01559   0.01883   0.02768
 Alpha virt. eigenvalues --    0.02881   0.03218   0.03824   0.03892   0.04435

 Mulliken charges:
               1
     1  C   -0.162846
     2  C    0.153794
     3  C    0.155326
     4  C   -0.750609
     5  C   -0.018999
     6  H    0.127402
     7  S   -0.303596
     8  H    0.160373
     9  C    0.223051
    10  S   -0.598209
    11  C    0.160990
    12  C   -0.409196
    13  C    0.582991
    14  H    0.131523
    15  S   -0.393945
    16  C   -0.213946
    17  C    0.374549
    18  H    0.167652
    19  H    0.135460
    20  H    0.146779
    21  H    0.168515
    22  H    0.162940
 Sum of Mulliken charges =  -0.00000

 Dipole moment (field-independent basis, Debye):
    X=              0.2487    Y=              0.8615    Z=              0.4284  Tot=              0.9938
 Quadrupole moment (field-independent basis, Debye-Ang):
   XX=            -88.4060   YY=           -100.2090   ZZ=           -106.7012
   XY=              4.5675   XZ=             -1.2600   YZ=             -1.1333

 Normal termination of Gaussian 16 at Sat Oct 16 23:38:11 2021.
