 Gaussian 16, Revision C.01,
 Gaussian 16:  ES64L-G16RevC.01  3-Jul-2019

 -------------------------------------
 # opt=modredundant b3lyp/6-311+g(d,p)
 -------------------------------------

 -------------
 pBTTT_-50.pdb
 -------------
 Symbolic Z-matrix:
 Charge =  0 Multiplicity = 1

 SCF Done:  E(RB3LYP) =  -1618.67709017     A.U. after   17 cycles
 SCF Done:  E(RB3LYP) =  -1618.70643211     A.U. after   14 cycles
 SCF Done:  E(RB3LYP) =  -1618.71428934     A.U. after   14 cycles
 SCF Done:  E(RB3LYP) =  -1618.71602392     A.U. after   14 cycles
 SCF Done:  E(RB3LYP) =  -1618.71616210     A.U. after   14 cycles
 SCF Done:  E(RB3LYP) =  -1618.71674291     A.U. after   13 cycles
 SCF Done:  E(RB3LYP) =  -1618.71676030     A.U. after   13 cycles
 SCF Done:  E(RB3LYP) =  -1618.71689708     A.U. after   12 cycles
 SCF Done:  E(RB3LYP) =  -1618.71698618     A.U. after   12 cycles
 SCF Done:  E(RB3LYP) =  -1618.71709170     A.U. after   13 cycles
 SCF Done:  E(RB3LYP) =  -1618.71718704     A.U. after   12 cycles
 SCF Done:  E(RB3LYP) =  -1618.71725329     A.U. after   12 cycles
 SCF Done:  E(RB3LYP) =  -1618.71726038     A.U. after   11 cycles
 SCF Done:  E(RB3LYP) =  -1618.71726141     A.U. after   10 cycles
 SCF Done:  E(RB3LYP) =  -1618.71726150     A.U. after    8 cycles
 SCF Done:  E(RB3LYP) =  -1618.71726150     A.U. after    7 cycles
 Optimization completed.
    -- Stationary point found.

                         Standard orientation:
 ---------------------------------------------------------------------
 Center     Atomic      Atomic             Coordinates (Angstroms)
 Number     Number       Type             X           Y           Z
 ---------------------------------------------------------------------
      1          6           0       -4.028946    0.285356    0.268295
      2          6           0       -2.703393    0.800236    0.419352
      3          6           0       -1.746300   -0.112989    0.024696
      4          6           0       -2.428542    2.171488    0.976744
      5          6           0       -4.075315   -0.985786   -0.224806
      6          1           0       -4.914161    0.848381    0.537160
      7         16           0       -2.491599   -1.599274   -0.541816
      8          1           0       -4.942863   -1.598407   -0.417265
      9          6           0       -0.293035   -0.015117    0.022860
     10         16           0        0.520652    1.387642   -0.694065
     11          6           0        2.085380    0.699080   -0.361786
     12          6           0        1.954038   -0.544772    0.242308
     13          6           0        0.611866   -0.952032    0.461188
     14          1           0        0.312186   -1.877478    0.933392
     15         16           0        3.520641   -1.230008    0.585038
     16          6           0        4.309901    0.176046   -0.092614
     17          6           0        3.433383    1.116683   -0.551823
     18          1           0        5.388389    0.213781   -0.110628
     19          1           0        3.739428    2.050083   -1.003357
     20          1           0       -3.158165    2.419907    1.751758
     21          1           0       -2.502168    2.941538    0.201353
     22          1           0       -1.431970    2.239271    1.414578
 ---------------------------------------------------------------------

 The electronic state is 1-A.
 Alpha  occ. eigenvalues --  -88.88445 -88.88330 -88.87989 -10.22370 -10.21437
 Alpha  occ. eigenvalues --  -10.21173 -10.21117 -10.21057 -10.20452 -10.19372
 Alpha  occ. eigenvalues --  -10.19275 -10.19272 -10.18083 -10.17459  -7.97018
 Alpha  occ. eigenvalues --   -7.96905  -7.96604  -5.93331  -5.93225  -5.92966
 Alpha  occ. eigenvalues --   -5.92898  -5.92861  -5.92567  -5.92520  -5.92434
 Alpha  occ. eigenvalues --   -5.92194  -0.91678  -0.89193  -0.84931  -0.77627
 Alpha  occ. eigenvalues --   -0.77244  -0.75661  -0.71439  -0.70485  -0.68020
 Alpha  occ. eigenvalues --   -0.61403  -0.57734  -0.56881  -0.53759  -0.52224
 Alpha  occ. eigenvalues --   -0.50019  -0.49714  -0.44524  -0.43852  -0.43530
 Alpha  occ. eigenvalues --   -0.42072  -0.41501  -0.40040  -0.39480  -0.39019
 Alpha  occ. eigenvalues --   -0.37803  -0.37481  -0.36698  -0.34872  -0.34238
 Alpha  occ. eigenvalues --   -0.33866  -0.29149  -0.25882  -0.25306  -0.23791
 Alpha  occ. eigenvalues --   -0.21290
 Alpha virt. eigenvalues --   -0.05568  -0.02061  -0.00608  -0.00432  -0.00025
 Alpha virt. eigenvalues --    0.00499   0.00960   0.01485   0.01951   0.02555
 Alpha virt. eigenvalues --    0.03076   0.03447   0.03867   0.04112   0.04665

 Mulliken charges:
               1
     1  C    0.009372
     2  C   -0.373372
     3  C    0.448196
     4  C   -0.828759
     5  C   -0.130214
     6  H    0.125699
     7  S   -0.323341
     8  H    0.160313
     9  C    0.684329
    10  S   -0.547069
    11  C    0.281734
    12  C   -0.585009
    13  C    0.620047
    14  H    0.143040
    15  S   -0.388202
    16  C   -0.214464
    17  C    0.139736
    18  H    0.167373
    19  H    0.135372
    20  H    0.143596
    21  H    0.171100
    22  H    0.160522
 Sum of Mulliken charges =  -0.00000

 Dipole moment (field-independent basis, Debye):
    X=             -0.3541    Y=              0.8301    Z=              0.3803  Tot=              0.9793
 Quadrupole moment (field-independent basis, Debye-Ang):
   XX=            -88.0592   YY=            -99.3490   ZZ=           -107.6481
   XY=              1.8795   XZ=             -2.3809   YZ=             -0.9411

 Normal termination of Gaussian 16 at Sun Oct 17 00:20:50 2021.
