 Gaussian 16, Revision C.01,
 Gaussian 16:  ES64L-G16RevC.01  3-Jul-2019

 -------------------------------------
 # opt=modredundant b3lyp/6-311+g(d,p)
 -------------------------------------

 -------------
 pBTTT_-20.pdb
 -------------
 Symbolic Z-matrix:
 Charge =  0 Multiplicity = 1

 SCF Done:  E(RB3LYP) =  -1618.67854703     A.U. after   16 cycles
 SCF Done:  E(RB3LYP) =  -1618.70695457     A.U. after   14 cycles
 SCF Done:  E(RB3LYP) =  -1618.71421107     A.U. after   15 cycles
 SCF Done:  E(RB3LYP) =  -1618.71593367     A.U. after   15 cycles
 SCF Done:  E(RB3LYP) =  -1618.71611733     A.U. after   13 cycles
 SCF Done:  E(RB3LYP) =  -1618.71647277     A.U. after   12 cycles
 SCF Done:  E(RB3LYP) =  -1618.71651618     A.U. after   11 cycles
 SCF Done:  E(RB3LYP) =  -1618.71652837     A.U. after   11 cycles
 SCF Done:  E(RB3LYP) =  -1618.71654278     A.U. after   11 cycles
 SCF Done:  E(RB3LYP) =  -1618.71655921     A.U. after   11 cycles
 SCF Done:  E(RB3LYP) =  -1618.71656585     A.U. after   11 cycles
 SCF Done:  E(RB3LYP) =  -1618.71656901     A.U. after    9 cycles
 SCF Done:  E(RB3LYP) =  -1618.71656971     A.U. after   10 cycles
 Optimization completed.
    -- Stationary point found.

                         Standard orientation:
 ---------------------------------------------------------------------
 Center     Atomic      Atomic             Coordinates (Angstroms)
 Number     Number       Type             X           Y           Z
 ---------------------------------------------------------------------
      1          6           0       -4.040575    0.269892    0.109182
      2          6           0       -2.729404    0.833716    0.178750
      3          6           0       -1.741615   -0.124079    0.020460
      4          6           0       -2.510867    2.304396    0.418416
      5          6           0       -4.056513   -1.076589   -0.102944
      6          1           0       -4.939892    0.861968    0.223789
      7         16           0       -2.455785   -1.710975   -0.241511
      8          1           0       -4.907636   -1.734715   -0.186269
      9          6           0       -0.294118   -0.014745    0.015539
     10         16           0        0.527754    1.530444   -0.286756
     11          6           0        2.090034    0.774027   -0.156809
     12          6           0        1.956813   -0.584005    0.099565
     13          6           0        0.616790   -1.031772    0.203829
     14          1           0        0.324745   -2.050190    0.419768
     15         16           0        3.522921   -1.337157    0.247648
     16          6           0        4.313821    0.197019   -0.039692
     17          6           0        3.437424    1.225812   -0.235014
     18          1           0        5.392280    0.237073   -0.049171
     19          1           0        3.744043    2.244534   -0.427361
     20          1           0       -3.434813    2.768542    0.769108
     21          1           0       -2.209801    2.826136   -0.496055
     22          1           0       -1.737922    2.487642    1.168404
 ---------------------------------------------------------------------

 The electronic state is 1-A.
 Alpha  occ. eigenvalues --  -88.88417 -88.88402 -88.88050 -10.22630 -10.21772
 Alpha  occ. eigenvalues --  -10.21165 -10.21073 -10.20997 -10.20532 -10.19415
 Alpha  occ. eigenvalues --  -10.19359 -10.19141 -10.18181 -10.17693  -7.96995
 Alpha  occ. eigenvalues --   -7.96976  -7.96679  -5.93318  -5.93289  -5.92980
 Alpha  occ. eigenvalues --   -5.92952  -5.92924  -5.92599  -5.92522  -5.92516
 Alpha  occ. eigenvalues --   -5.92257  -0.91713  -0.89295  -0.84943  -0.77895
 Alpha  occ. eigenvalues --   -0.77268  -0.75780  -0.71434  -0.70478  -0.68241
 Alpha  occ. eigenvalues --   -0.61519  -0.57984  -0.57000  -0.53444  -0.52384
 Alpha  occ. eigenvalues --   -0.50193  -0.49779  -0.44541  -0.43938  -0.43677
 Alpha  occ. eigenvalues --   -0.42028  -0.41651  -0.40237  -0.39514  -0.38867
 Alpha  occ. eigenvalues --   -0.38104  -0.37873  -0.36705  -0.34777  -0.34368
 Alpha  occ. eigenvalues --   -0.33845  -0.29314  -0.26594  -0.25533  -0.23816
 Alpha  occ. eigenvalues --   -0.20514
 Alpha virt. eigenvalues --   -0.06175  -0.01631  -0.00571  -0.00382   0.00176
 Alpha virt. eigenvalues --    0.00468   0.01326   0.01476   0.02067   0.02597
 Alpha virt. eigenvalues --    0.03012   0.03342   0.03800   0.04321   0.04816

 Mulliken charges:
               1
     1  C    0.056598
     2  C    0.264636
     3  C    0.561187
     4  C   -0.971032
     5  C   -0.104385
     6  H    0.121014
     7  S   -0.573584
     8  H    0.159837
     9  C    0.392800
    10  S   -0.585662
    11  C    0.305384
    12  C    0.201402
    13  C   -0.009325
    14  H    0.139371
    15  S   -0.404137
    16  C   -0.137136
    17  C   -0.205446
    18  H    0.166981
    19  H    0.134217
    20  H    0.144001
    21  H    0.176742
    22  H    0.166536
 Sum of Mulliken charges =  -0.00000

 Dipole moment (field-independent basis, Debye):
    X=             -0.4819    Y=              0.9229    Z=              0.1820  Tot=              1.0569
 Quadrupole moment (field-independent basis, Debye-Ang):
   XX=            -87.7976   YY=            -97.6036   ZZ=           -109.5639
   XY=              1.9080   XZ=             -1.0339   YZ=             -0.4177

 Normal termination of Gaussian 16 at Sun Oct 17 00:37:47 2021.
