 Gaussian 16, Revision C.01,
 Gaussian 16:  ES64L-G16RevC.01  3-Jul-2019

 -------------------------------------
 # opt=modredundant b3lyp/6-311+g(d,p)
 -------------------------------------

 ------------
 pBTTT_95.pdb
 ------------
 Symbolic Z-matrix:
 Charge =  0 Multiplicity = 1

 SCF Done:  E(RB3LYP) =  -1618.67427713     A.U. after   17 cycles
 SCF Done:  E(RB3LYP) =  -1618.70440533     A.U. after   16 cycles
 SCF Done:  E(RB3LYP) =  -1618.71268581     A.U. after   16 cycles
 SCF Done:  E(RB3LYP) =  -1618.71462287     A.U. after   15 cycles
 SCF Done:  E(RB3LYP) =  -1618.71477044     A.U. after   14 cycles
 SCF Done:  E(RB3LYP) =  -1618.71532030     A.U. after   13 cycles
 SCF Done:  E(RB3LYP) =  -1618.71527715     A.U. after   13 cycles
 SCF Done:  E(RB3LYP) =  -1618.71534270     A.U. after   13 cycles
 SCF Done:  E(RB3LYP) =  -1618.71536709     A.U. after   13 cycles
 SCF Done:  E(RB3LYP) =  -1618.71537318     A.U. after   11 cycles
 SCF Done:  E(RB3LYP) =  -1618.71534610     A.U. after   14 cycles
 SCF Done:  E(RB3LYP) =  -1618.71059017     A.U. after   17 cycles
 SCF Done:  E(RB3LYP) =  -1618.71606632     A.U. after   14 cycles
 SCF Done:  E(RB3LYP) =  -1618.71613869     A.U. after   14 cycles
 SCF Done:  E(RB3LYP) =  -1618.71588243     A.U. after   16 cycles
 SCF Done:  E(RB3LYP) =  -1618.71626971     A.U. after   16 cycles
 SCF Done:  E(RB3LYP) =  -1618.71627720     A.U. after   12 cycles
 SCF Done:  E(RB3LYP) =  -1618.71627886     A.U. after   11 cycles
 SCF Done:  E(RB3LYP) =  -1618.71627896     A.U. after   10 cycles
 SCF Done:  E(RB3LYP) =  -1618.71627897     A.U. after    9 cycles
 Optimization completed.
    -- Stationary point found.

                         Standard orientation:
 ---------------------------------------------------------------------
 Center     Atomic      Atomic             Coordinates (Angstroms)
 Number     Number       Type             X           Y           Z
 ---------------------------------------------------------------------
      1          6           0       -3.977971    0.664224    0.112415
      2          6           0       -2.602710    0.981403    0.352862
      3          6           0       -1.756426   -0.001411   -0.108359
      4          6           0       -2.156468    2.244030    1.036413
      5          6           0       -4.161090   -0.535851   -0.509082
      6          1           0       -4.795511    1.314222    0.398897
      7         16           0       -2.657305   -1.324996   -0.829620
      8          1           0       -5.089818   -1.002510   -0.800835
      9          6           0       -0.294020   -0.047548   -0.046345
     10         16           0        0.515814   -0.897364    1.281894
     11          6           0        2.080721   -0.474406    0.647030
     12          6           0        1.951771    0.276704   -0.514437
     13          6           0        0.607610    0.517566   -0.909781
     14          1           0        0.303828    1.074148   -1.785713
     15         16           0        3.518880    0.703576   -1.149459
     16          6           0        4.306245   -0.139860    0.164472
     17          6           0        3.429512   -0.714874    1.038293
     18          1           0        5.384717   -0.156089    0.204846
     19          1           0        3.734804   -1.277231    1.909672
     20          1           0       -2.588178    2.317966    2.039446
     21          1           0       -2.480312    3.127605    0.477270
     22          1           0       -1.070801    2.282596    1.130494
 ---------------------------------------------------------------------

 The electronic state is 1-A.
 Alpha  occ. eigenvalues --  -88.88477 -88.88225 -88.87864 -10.22147 -10.21180
 Alpha  occ. eigenvalues --  -10.21169 -10.21102 -10.21100 -10.20464 -10.19397
 Alpha  occ. eigenvalues --  -10.19372 -10.19267 -10.17999 -10.17357  -7.97051
 Alpha  occ. eigenvalues --   -7.96794  -7.96475  -5.93363  -5.93108  -5.92999
 Alpha  occ. eigenvalues --   -5.92765  -5.92745  -5.92601  -5.92389  -5.92333
 Alpha  occ. eigenvalues --   -5.92071  -0.91631  -0.89096  -0.84901  -0.77592
 Alpha  occ. eigenvalues --   -0.77078  -0.75536  -0.71419  -0.70539  -0.67864
 Alpha  occ. eigenvalues --   -0.61300  -0.57495  -0.56676  -0.54246  -0.52049
 Alpha  occ. eigenvalues --   -0.49915  -0.49680  -0.44572  -0.43632  -0.43605
 Alpha  occ. eigenvalues --   -0.42120  -0.41426  -0.39915  -0.39481  -0.39001
 Alpha  occ. eigenvalues --   -0.37659  -0.37322  -0.36530  -0.34899  -0.34268
 Alpha  occ. eigenvalues --   -0.33639  -0.29076  -0.25391  -0.24294  -0.23793
 Alpha  occ. eigenvalues --   -0.22573
 Alpha virt. eigenvalues --   -0.04584  -0.03152  -0.00545  -0.00301   0.00091
 Alpha virt. eigenvalues --    0.00507   0.00744   0.01688   0.01744   0.02697
 Alpha virt. eigenvalues --    0.02972   0.03147   0.03574   0.03964   0.04472

 Mulliken charges:
               1
     1  C   -0.029259
     2  C   -0.187306
     3  C    0.288350
     4  C   -0.681482
     5  C   -0.103614
     6  H    0.127146
     7  S   -0.238067
     8  H    0.159965
     9  C    0.263680
    10  S   -0.554255
    11  C    0.137635
    12  C   -0.554849
    13  C    0.588941
    14  H    0.134944
    15  S   -0.390919
    16  C   -0.227952
    17  C    0.478862
    18  H    0.167479
    19  H    0.135661
    20  H    0.157049
    21  H    0.155727
    22  H    0.172263
 Sum of Mulliken charges =  -0.00000

 Dipole moment (field-independent basis, Debye):
    X=             -0.2249    Y=              0.8860    Z=              0.4077  Tot=              1.0009
 Quadrupole moment (field-independent basis, Debye-Ang):
   XX=            -88.3320   YY=           -103.3261   ZZ=           -103.5991
   XY=             -3.5255   XZ=              2.4282   YZ=             -1.1123

 Normal termination of Gaussian 16 at Sun Oct 17 01:35:25 2021.
