 Gaussian 16, Revision C.01,
 Gaussian 16:  ES64L-G16RevC.01  3-Jul-2019

 -------------------------------------
 # opt=modredundant b3lyp/6-311+g(d,p)
 -------------------------------------

 -------------
 pBTTT_-75.pdb
 -------------
 Symbolic Z-matrix:
 Charge =  0 Multiplicity = 1

 SCF Done:  E(RB3LYP) =  -1618.67469211     A.U. after   17 cycles
 SCF Done:  E(RB3LYP) =  -1618.70487990     A.U. after   14 cycles
 SCF Done:  E(RB3LYP) =  -1618.71313295     A.U. after   14 cycles
 SCF Done:  E(RB3LYP) =  -1618.71499037     A.U. after   14 cycles
 SCF Done:  E(RB3LYP) =  -1618.71517051     A.U. after   14 cycles
 SCF Done:  E(RB3LYP) =  -1618.71572861     A.U. after   13 cycles
 SCF Done:  E(RB3LYP) =  -1618.71579663     A.U. after   12 cycles
 SCF Done:  E(RB3LYP) =  -1618.71583154     A.U. after   12 cycles
 SCF Done:  E(RB3LYP) =  -1618.71585668     A.U. after   11 cycles
 SCF Done:  E(RB3LYP) =  -1618.71594836     A.U. after   14 cycles
 SCF Done:  E(RB3LYP) =  -1618.71597149     A.U. after   13 cycles
 SCF Done:  E(RB3LYP) =  -1618.71610787     A.U. after   13 cycles
 SCF Done:  E(RB3LYP) =  -1618.71638683     A.U. after   13 cycles
 SCF Done:  E(RB3LYP) =  -1618.71652112     A.U. after   13 cycles
 SCF Done:  E(RB3LYP) =  -1618.71652614     A.U. after   12 cycles
 SCF Done:  E(RB3LYP) =  -1618.71652137     A.U. after   11 cycles
 SCF Done:  E(RB3LYP) =  -1618.71652737     A.U. after   12 cycles
 SCF Done:  E(RB3LYP) =  -1618.71652809     A.U. after   11 cycles
 SCF Done:  E(RB3LYP) =  -1618.71652817     A.U. after    9 cycles
 SCF Done:  E(RB3LYP) =  -1618.71652818     A.U. after    8 cycles
 Optimization completed.
    -- Stationary point found.

                         Standard orientation:
 ---------------------------------------------------------------------
 Center     Atomic      Atomic             Coordinates (Angstroms)
 Number     Number       Type             X           Y           Z
 ---------------------------------------------------------------------
      1          6           0        4.009874    0.324795   -0.421375
      2          6           0        2.659947    0.765871   -0.599259
      3          6           0        1.753516   -0.100031   -0.029293
      4          6           0        2.298152    2.024135   -1.339592
      5          6           0        4.116404   -0.849352    0.264801
      6          1           0        4.865682    0.866737   -0.804582
      7         16           0        2.567006   -1.459683    0.726725
      8          1           0        5.012078   -1.394388    0.521851
      9          6           0        0.292650   -0.023173   -0.005706
     10         16           0       -0.520374    1.131129    1.066356
     11          6           0       -2.084301    0.564453    0.551817
     12          6           0       -1.952310   -0.463364   -0.373416
     13          6           0       -0.607785   -0.801039   -0.686780
     14          1           0       -0.303381   -1.569615   -1.383933
     15         16           0       -3.517861   -1.029178   -0.893085
     16          6           0       -4.308521    0.132800    0.147318
     17          6           0       -3.433834    0.909919    0.850264
     18          1           0       -5.387101    0.164077    0.173064
     19          1           0       -3.741286    1.681097    1.542732
     20          1           0        2.810042    2.065061   -2.305533
     21          1           0        2.596172    2.913848   -0.775216
     22          1           0        1.224709    2.086812   -1.520985
 ---------------------------------------------------------------------

 The electronic state is 1-A.
 Alpha  occ. eigenvalues --  -88.88465 -88.88239 -88.87901 -10.22185 -10.21214
 Alpha  occ. eigenvalues --  -10.21166 -10.21100 -10.21090 -10.20448 -10.19374
 Alpha  occ. eigenvalues --  -10.19370 -10.19241 -10.18012 -10.17367  -7.97039
 Alpha  occ. eigenvalues --   -7.96810  -7.96511  -5.93351  -5.93126  -5.92987
 Alpha  occ. eigenvalues --   -5.92802  -5.92762  -5.92589  -5.92426  -5.92347
 Alpha  occ. eigenvalues --   -5.92107  -0.91635  -0.89114  -0.84903  -0.77522
 Alpha  occ. eigenvalues --   -0.77182  -0.75546  -0.71418  -0.70518  -0.67889
 Alpha  occ. eigenvalues --   -0.61314  -0.57566  -0.56721  -0.54067  -0.52107
 Alpha  occ. eigenvalues --   -0.49933  -0.49679  -0.44538  -0.43731  -0.43540
 Alpha  occ. eigenvalues --   -0.42115  -0.41434  -0.39930  -0.39469  -0.39007
 Alpha  occ. eigenvalues --   -0.37678  -0.37321  -0.36591  -0.34897  -0.34254
 Alpha  occ. eigenvalues --   -0.33670  -0.29080  -0.25436  -0.24606  -0.23806
 Alpha  occ. eigenvalues --   -0.22236
 Alpha virt. eigenvalues --   -0.04843  -0.02836  -0.00579  -0.00357  -0.00024
 Alpha virt. eigenvalues --    0.00497   0.00813   0.01590   0.01867   0.02536
 Alpha virt. eigenvalues --    0.03129   0.03247   0.03688   0.04156   0.04406

 Mulliken charges:
               1
     1  C    0.106259
     2  C   -0.486080
     3  C    0.336740
     4  C   -0.821607
     5  C   -0.166170
     6  H    0.125950
     7  S   -0.209073
     8  H    0.160269
     9  C    0.805646
    10  S   -0.488926
    11  C    0.278354
    12  C   -0.479552
    13  C    0.388859
    14  H    0.138371
    15  S   -0.381899
    16  C   -0.209070
    17  C    0.122595
    18  H    0.167536
    19  H    0.135907
    20  H    0.149911
    21  H    0.163579
    22  H    0.162402
 Sum of Mulliken charges =  -0.00000

 Dipole moment (field-independent basis, Debye):
    X=              0.2799    Y=              0.7518    Z=             -0.5274  Tot=              0.9600
 Quadrupole moment (field-independent basis, Debye-Ang):
   XX=            -88.1694   YY=           -101.8840   ZZ=           -105.0518
   XY=             -1.4216   XZ=             -3.4928   YZ=              1.1567

 Normal termination of Gaussian 16 at Sun Oct 17 00:15:38 2021.
