 Gaussian 16, Revision C.01,
 Gaussian 16:  ES64L-G16RevC.01  3-Jul-2019

 -------------------------------------
 # opt=modredundant b3lyp/6-311+g(d,p)
 -------------------------------------

 -------------
 pBTTT_110.pdb
 -------------
 Symbolic Z-matrix:
 Charge =  0 Multiplicity = 1

 SCF Done:  E(RB3LYP) =  -1618.67515821     A.U. after   17 cycles
 SCF Done:  E(RB3LYP) =  -1618.70502185     A.U. after   16 cycles
 SCF Done:  E(RB3LYP) =  -1618.71308953     A.U. after   16 cycles
 SCF Done:  E(RB3LYP) =  -1618.71495504     A.U. after   15 cycles
 SCF Done:  E(RB3LYP) =  -1618.71503062     A.U. after   15 cycles
 SCF Done:  E(RB3LYP) =  -1618.71566462     A.U. after   14 cycles
 SCF Done:  E(RB3LYP) =  -1618.71565392     A.U. after   13 cycles
 SCF Done:  E(RB3LYP) =  -1618.71577193     A.U. after   13 cycles
 SCF Done:  E(RB3LYP) =  -1618.71581966     A.U. after   13 cycles
 SCF Done:  E(RB3LYP) =  -1618.71607196     A.U. after   14 cycles
 SCF Done:  E(RB3LYP) =  -1618.71634950     A.U. after   12 cycles
 SCF Done:  E(RB3LYP) =  -1618.71665565     A.U. after   14 cycles
 SCF Done:  E(RB3LYP) =  -1618.71665369     A.U. after   13 cycles
 SCF Done:  E(RB3LYP) =  -1618.71668491     A.U. after   12 cycles
 SCF Done:  E(RB3LYP) =  -1618.71668212     A.U. after   11 cycles
 SCF Done:  E(RB3LYP) =  -1618.71668594     A.U. after   11 cycles
 Optimization completed.
    -- Stationary point found.

                         Standard orientation:
 ---------------------------------------------------------------------
 Center     Atomic      Atomic             Coordinates (Angstroms)
 Number     Number       Type             X           Y           Z
 ---------------------------------------------------------------------
      1          6           0       -3.960579    0.713488    0.196278
      2          6           0       -2.576374    0.998981    0.422761
      3          6           0       -1.754825    0.025148   -0.101720
      4          6           0       -2.102054    2.217604    1.165292
      5          6           0       -4.176337   -0.455495   -0.472123
      6          1           0       -4.761670    1.359592    0.533533
      7         16           0       -2.692436   -1.251091   -0.861606
      8          1           0       -5.118431   -0.897277   -0.759444
      9          6           0       -0.295938   -0.050243   -0.065532
     10         16           0        0.512249   -1.272722    0.932166
     11          6           0        2.077937   -0.667992    0.469114
     12          6           0        1.950540    0.416985   -0.388924
     13          6           0        0.607425    0.767232   -0.694695
     14          1           0        0.305995    1.568484   -1.355205
     15         16           0        3.518736    1.022366   -0.853259
     16          6           0        4.304220   -0.200301    0.119535
     17          6           0        3.425843   -1.024855    0.761108
     18          1           0        5.382608   -0.229471    0.153878
     19          1           0        3.729708   -1.838395    1.404985
     20          1           0       -2.636550    2.324639    2.113762
     21          1           0       -2.283401    3.129169    0.586117
     22          1           0       -1.034183    2.163100    1.378997
 ---------------------------------------------------------------------

 The electronic state is 1-A.
 Alpha  occ. eigenvalues --  -88.88474 -88.88245 -88.87898 -10.22199 -10.21263
 Alpha  occ. eigenvalues --  -10.21166 -10.21108 -10.21086 -10.20482 -10.19372
 Alpha  occ. eigenvalues --  -10.19367 -10.19297 -10.18037 -10.17403  -7.97048
 Alpha  occ. eigenvalues --   -7.96815  -7.96512  -5.93360  -5.93130  -5.92996
 Alpha  occ. eigenvalues --   -5.92802  -5.92767  -5.92598  -5.92427  -5.92351
 Alpha  occ. eigenvalues --   -5.92107  -0.91644  -0.89133  -0.84910  -0.77698
 Alpha  occ. eigenvalues --   -0.77011  -0.75611  -0.71427  -0.70545  -0.67909
 Alpha  occ. eigenvalues --   -0.61337  -0.57473  -0.56776  -0.54270  -0.52037
 Alpha  occ. eigenvalues --   -0.49937  -0.49691  -0.44593  -0.43680  -0.43589
 Alpha  occ. eigenvalues --   -0.42090  -0.41441  -0.39943  -0.39532  -0.39023
 Alpha  occ. eigenvalues --   -0.37685  -0.37403  -0.36517  -0.34907  -0.34277
 Alpha  occ. eigenvalues --   -0.33724  -0.29091  -0.25447  -0.24883  -0.23726
 Alpha  occ. eigenvalues --   -0.22089
 Alpha virt. eigenvalues --   -0.04912  -0.02844  -0.00545  -0.00295   0.00192
 Alpha virt. eigenvalues --    0.00557   0.00727   0.01605   0.01818   0.02784
 Alpha virt. eigenvalues --    0.02865   0.03190   0.03659   0.03922   0.04431

 Mulliken charges:
               1
     1  C   -0.109883
     2  C    0.013567
     3  C    0.206361
     4  C   -0.725405
     5  C   -0.046819
     6  H    0.127366
     7  S   -0.276190
     8  H    0.160274
     9  C    0.204738
    10  S   -0.583913
    11  C    0.154345
    12  C   -0.480475
    13  C    0.626845
    14  H    0.131546
    15  S   -0.392839
    16  C   -0.220804
    17  C    0.426472
    18  H    0.167604
    19  H    0.135576
    20  H    0.150497
    21  H    0.159884
    22  H    0.171253
 Sum of Mulliken charges =  -0.00000

 Dipole moment (field-independent basis, Debye):
    X=             -0.2304    Y=              0.8542    Z=              0.4799  Tot=              1.0065
 Quadrupole moment (field-independent basis, Debye-Ang):
   XX=            -88.4013   YY=           -101.2471   ZZ=           -105.6621
   XY=             -4.3167   XZ=              1.5206   YZ=             -1.2118

 Normal termination of Gaussian 16 at Sun Oct 17 01:26:54 2021.
