 Gaussian 16, Revision C.01,
 Gaussian 16:  ES64L-G16RevC.01  3-Jul-2019

 -------------------------------------
 # opt=modredundant b3lyp/6-311+g(d,p)
 -------------------------------------

 --------------
 pBTTT_-145.pdb
 --------------
 Symbolic Z-matrix:
 Charge =  0 Multiplicity = 1

 SCF Done:  E(RB3LYP) =  -1618.67621978     A.U. after   17 cycles
 SCF Done:  E(RB3LYP) =  -1618.70526556     A.U. after   14 cycles
 SCF Done:  E(RB3LYP) =  -1618.71348686     A.U. after   14 cycles
 SCF Done:  E(RB3LYP) =  -1618.71553771     A.U. after   14 cycles
 SCF Done:  E(RB3LYP) =  -1618.71612386     A.U. after   15 cycles
 SCF Done:  E(RB3LYP) =  -1618.71677362     A.U. after   13 cycles
 SCF Done:  E(RB3LYP) =  -1618.71681172     A.U. after   13 cycles
 SCF Done:  E(RB3LYP) =  -1618.71708582     A.U. after   14 cycles
 SCF Done:  E(RB3LYP) =  -1618.71719231     A.U. after   13 cycles
 SCF Done:  E(RB3LYP) =  -1618.71728172     A.U. after   13 cycles
 SCF Done:  E(RB3LYP) =  -1618.71729202     A.U. after   12 cycles
 SCF Done:  E(RB3LYP) =  -1618.71729354     A.U. after   11 cycles
 SCF Done:  E(RB3LYP) =  -1618.71729403     A.U. after   10 cycles
 Optimization completed.
    -- Stationary point found.

                         Standard orientation:
 ---------------------------------------------------------------------
 Center     Atomic      Atomic             Coordinates (Angstroms)
 Number     Number       Type             X           Y           Z
 ---------------------------------------------------------------------
      1          6           0        3.956969    0.778886    0.078377
      2          6           0        2.576766    1.110237    0.244215
      3          6           0        1.749527    0.036330   -0.028850
      4          6           0        2.120140    2.469399    0.699480
      5          6           0        4.173146   -0.511677   -0.306698
      6          1           0        4.758303    1.484719    0.258538
      7         16           0        2.687905   -1.373379   -0.498932
      8          1           0        5.113462   -1.010292   -0.485146
      9          6           0        0.298993   -0.028440   -0.001464
     10         16           0       -0.517049   -1.513602    0.525026
     11          6           0       -2.080755   -0.796653    0.252848
     12          6           0       -1.948363    0.510434   -0.196870
     13          6           0       -0.606189    0.946745   -0.350142
     14          1           0       -0.313035    1.912779   -0.734077
     15         16           0       -3.514602    1.228145   -0.468870
     16          6           0       -4.304850   -0.250122    0.031217
     17          6           0       -3.428414   -1.235648    0.384740
     18          1           0       -5.383223   -0.293904    0.031168
     19          1           0       -3.734750   -2.217105    0.718903
     20          1           0        2.875377    2.930582    1.340359
     21          1           0        1.185222    2.411303    1.260238
     22          1           0        1.956769    3.146351   -0.146695
 ---------------------------------------------------------------------

 The electronic state is 1-A.
 Alpha  occ. eigenvalues --  -88.88465 -88.88291 -88.88051 -10.22476 -10.21577
 Alpha  occ. eigenvalues --  -10.21191 -10.21118 -10.21049 -10.20511 -10.19368
 Alpha  occ. eigenvalues --  -10.19345 -10.19318 -10.18166 -10.17707  -7.97040
 Alpha  occ. eigenvalues --   -7.96870  -7.96672  -5.93352  -5.93191  -5.92988
 Alpha  occ. eigenvalues --   -5.92967  -5.92829  -5.92589  -5.92588  -5.92394
 Alpha  occ. eigenvalues --   -5.92259  -0.91708  -0.89271  -0.84948  -0.78000
 Alpha  occ. eigenvalues --   -0.76940  -0.75861  -0.71452  -0.70561  -0.68142
 Alpha  occ. eigenvalues --   -0.61480  -0.57506  -0.57178  -0.54158  -0.52111
 Alpha  occ. eigenvalues --   -0.50040  -0.49754  -0.44602  -0.43845  -0.43666
 Alpha  occ. eigenvalues --   -0.42003  -0.41573  -0.40168  -0.39719  -0.38980
 Alpha  occ. eigenvalues --   -0.37872  -0.37777  -0.36457  -0.35039  -0.34274
 Alpha  occ. eigenvalues --   -0.33930  -0.29221  -0.26271  -0.25443  -0.23796
 Alpha  occ. eigenvalues --   -0.20943
 Alpha virt. eigenvalues --   -0.05853  -0.02055  -0.00767  -0.00461   0.00293
 Alpha virt. eigenvalues --    0.00702   0.00981   0.01493   0.02021   0.02763
 Alpha virt. eigenvalues --    0.02977   0.03375   0.03819   0.04244   0.04564

 Mulliken charges:
               1
     1  C    0.078102
     2  C   -0.027957
     3  C    0.515442
     4  C   -1.030653
     5  C   -0.096087
     6  H    0.124831
     7  S   -0.418380
     8  H    0.159879
     9  C    0.489607
    10  S   -0.589280
    11  C    0.372450
    12  C   -0.254246
    13  C    0.430104
    14  H    0.136774
    15  S   -0.401005
    16  C   -0.164398
    17  C   -0.103436
    18  H    0.167413
    19  H    0.135724
    20  H    0.144685
    21  H    0.163378
    22  H    0.167055
 Sum of Mulliken charges =  -0.00000

 Dipole moment (field-independent basis, Debye):
    X=              0.2918    Y=              0.8727    Z=              0.2221  Tot=              0.9466
 Quadrupole moment (field-independent basis, Debye-Ang):
   XX=            -88.2459   YY=            -98.3593   ZZ=           -108.6213
   XY=              5.0379   XZ=             -0.7893   YZ=             -0.7099

 Normal termination of Gaussian 16 at Sat Oct 16 23:12:46 2021.
