 Gaussian 16, Revision C.01,
 Gaussian 16:  ES64L-G16RevC.01  3-Jul-2019

 -------------------------------------
 # opt=modredundant b3lyp/6-311+g(d,p)
 -------------------------------------

 ------------
 pBTTT_40.pdb
 ------------
 Symbolic Z-matrix:
 Charge =  0 Multiplicity = 1

 SCF Done:  E(RB3LYP) =  -1618.67649200     A.U. after   17 cycles
 SCF Done:  E(RB3LYP) =  -1618.70569408     A.U. after   15 cycles
 SCF Done:  E(RB3LYP) =  -1618.71382275     A.U. after   14 cycles
 SCF Done:  E(RB3LYP) =  -1618.71578863     A.U. after   15 cycles
 SCF Done:  E(RB3LYP) =  -1618.71618100     A.U. after   14 cycles
 SCF Done:  E(RB3LYP) =  -1618.71677460     A.U. after   13 cycles
 SCF Done:  E(RB3LYP) =  -1618.71689308     A.U. after   12 cycles
 SCF Done:  E(RB3LYP) =  -1618.71695254     A.U. after   12 cycles
 SCF Done:  E(RB3LYP) =  -1618.71701587     A.U. after   11 cycles
 SCF Done:  E(RB3LYP) =  -1618.71712937     A.U. after   12 cycles
 SCF Done:  E(RB3LYP) =  -1618.71720651     A.U. after   13 cycles
 SCF Done:  E(RB3LYP) =  -1618.71721783     A.U. after   12 cycles
 SCF Done:  E(RB3LYP) =  -1618.71721856     A.U. after   11 cycles
 SCF Done:  E(RB3LYP) =  -1618.71721884     A.U. after   10 cycles
 SCF Done:  E(RB3LYP) =  -1618.71721898     A.U. after    9 cycles
 Optimization completed.
    -- Stationary point found.

                         Standard orientation:
 ---------------------------------------------------------------------
 Center     Atomic      Atomic             Coordinates (Angstroms)
 Number     Number       Type             X           Y           Z
 ---------------------------------------------------------------------
      1          6           0        4.033651    0.277188    0.212842
      2          6           0        2.714879    0.813888    0.341462
      3          6           0        1.744035   -0.117747    0.025572
      4          6           0        2.465901    2.226054    0.801581
      5          6           0        4.065321   -1.025569   -0.190075
      6          1           0        4.925794    0.850788    0.431584
      7         16           0        2.473416   -1.644951   -0.448313
      8          1           0        4.925262   -1.658198   -0.348442
      9          6           0        0.293277   -0.014922    0.022551
     10         16           0       -0.522198    1.448065   -0.560604
     11          6           0       -2.086576    0.730584   -0.295328
     12          6           0       -1.955020   -0.562035    0.195324
     13          6           0       -0.613784   -0.986066    0.379079
     14          1           0       -0.316413   -1.948825    0.771268
     15         16           0       -3.521827   -1.274936    0.475310
     16          6           0       -4.311026    0.186137   -0.074614
     17          6           0       -3.434084    1.163809   -0.448007
     18          1           0       -5.389489    0.225304   -0.089583
     19          1           0       -3.739814    2.133837   -0.814562
     20          1           0        3.275194    2.558275    1.456147
     21          1           0        1.527560    2.316611    1.350830
     22          1           0        2.422194    2.923444   -0.041839
 ---------------------------------------------------------------------

 The electronic state is 1-A.
 Alpha  occ. eigenvalues --  -88.88434 -88.88366 -88.88013 -10.22461 -10.21549
 Alpha  occ. eigenvalues --  -10.21173 -10.21116 -10.21041 -10.20468 -10.19372
 Alpha  occ. eigenvalues --  -10.19312 -10.19225 -10.18115 -10.17528  -7.97008
 Alpha  occ. eigenvalues --   -7.96944  -7.96631  -5.93320  -5.93265  -5.92955
 Alpha  occ. eigenvalues --   -5.92927  -5.92901  -5.92556  -5.92549  -5.92470
 Alpha  occ. eigenvalues --   -5.92218  -0.91696  -0.89226  -0.84941  -0.77710
 Alpha  occ. eigenvalues --   -0.77252  -0.75707  -0.71444  -0.70476  -0.68091
 Alpha  occ. eigenvalues --   -0.61443  -0.57818  -0.56933  -0.53643  -0.52276
 Alpha  occ. eigenvalues --   -0.50070  -0.49736  -0.44526  -0.43885  -0.43560
 Alpha  occ. eigenvalues --   -0.42056  -0.41551  -0.40104  -0.39489  -0.38992
 Alpha  occ. eigenvalues --   -0.37892  -0.37594  -0.36716  -0.34849  -0.34237
 Alpha  occ. eigenvalues --   -0.33926  -0.29199  -0.26162  -0.25396  -0.23799
 Alpha  occ. eigenvalues --   -0.20981
 Alpha virt. eigenvalues --   -0.05815  -0.01856  -0.00595  -0.00433   0.00027
 Alpha virt. eigenvalues --    0.00493   0.01047   0.01469   0.01983   0.02590
 Alpha virt. eigenvalues --    0.03049   0.03448   0.03901   0.04096   0.04710

 Mulliken charges:
               1
     1  C   -0.038253
     2  C   -0.178006
     3  C    0.470190
     4  C   -0.869820
     5  C   -0.085629
     6  H    0.125028
     7  S   -0.396053
     8  H    0.160080
     9  C    0.520559
    10  S   -0.574311
    11  C    0.277807
    12  C   -0.642218
    13  C    0.763604
    14  H    0.143234
    15  S   -0.397203
    16  C   -0.218459
    17  C    0.157976
    18  H    0.167263
    19  H    0.135095
    20  H    0.143271
    21  H    0.162251
    22  H    0.173593
 Sum of Mulliken charges =  -0.00000

 Dipole moment (field-independent basis, Debye):
    X=              0.3877    Y=              0.8676    Z=              0.3196  Tot=              1.0026
 Quadrupole moment (field-independent basis, Debye-Ang):
   XX=            -87.9927   YY=            -98.6330   ZZ=           -108.4149
   XY=             -1.9284   XZ=              1.9469   YZ=             -0.7882

 Normal termination of Gaussian 16 at Sun Oct 17 00:55:45 2021.
