 Gaussian 16, Revision C.01,
 Gaussian 16:  ES64L-G16RevC.01  3-Jul-2019

 -------------------------------------
 # opt=modredundant b3lyp/6-311+g(d,p)
 -------------------------------------

 -------------
 pBTTT_-60.pdb
 -------------
 Symbolic Z-matrix:
 Charge =  0 Multiplicity = 1

 SCF Done:  E(RB3LYP) =  -1618.67611783     A.U. after   17 cycles
 SCF Done:  E(RB3LYP) =  -1618.70583659     A.U. after   14 cycles
 SCF Done:  E(RB3LYP) =  -1618.71391855     A.U. after   14 cycles
 SCF Done:  E(RB3LYP) =  -1618.71566082     A.U. after   14 cycles
 SCF Done:  E(RB3LYP) =  -1618.71582062     A.U. after   14 cycles
 SCF Done:  E(RB3LYP) =  -1618.71639509     A.U. after   13 cycles
 SCF Done:  E(RB3LYP) =  -1618.71638131     A.U. after   13 cycles
 SCF Done:  E(RB3LYP) =  -1618.71651004     A.U. after   13 cycles
 SCF Done:  E(RB3LYP) =  -1618.71657608     A.U. after   11 cycles
 SCF Done:  E(RB3LYP) =  -1618.71689660     A.U. after   13 cycles
 SCF Done:  E(RB3LYP) =  -1618.71697886     A.U. after   13 cycles
 SCF Done:  E(RB3LYP) =  -1618.71706052     A.U. after   12 cycles
 SCF Done:  E(RB3LYP) =  -1618.71706769     A.U. after   11 cycles
 SCF Done:  E(RB3LYP) =  -1618.71706981     A.U. after   11 cycles
 SCF Done:  E(RB3LYP) =  -1618.71706996     A.U. after    9 cycles
 SCF Done:  E(RB3LYP) =  -1618.71706999     A.U. after    9 cycles
 Optimization completed.
    -- Stationary point found.

                         Standard orientation:
 ---------------------------------------------------------------------
 Center     Atomic      Atomic             Coordinates (Angstroms)
 Number     Number       Type             X           Y           Z
 ---------------------------------------------------------------------
      1          6           0       -4.023289    0.295288    0.327433
      2          6           0       -2.689468    0.784166    0.495900
      3          6           0       -1.749105   -0.107217    0.024069
      4          6           0       -2.384068    2.108805    1.141551
      5          6           0       -4.088617   -0.937858   -0.252471
      6          1           0       -4.899341    0.846858    0.645635
      7         16           0       -2.515572   -1.545514   -0.629335
      8          1           0       -4.965399   -1.526320   -0.476367
      9          6           0       -0.292825   -0.015434    0.019704
     10         16           0        0.520390    1.310800   -0.830618
     11          6           0        2.084881    0.658618   -0.430814
     12          6           0        1.953105   -0.521250    0.290431
     13          6           0        0.609842   -0.906845    0.544352
     14          1           0        0.307889   -1.785355    1.097851
     15         16           0        3.519149   -1.171458    0.697672
     16          6           0        4.309204    0.162213   -0.112000
     17          6           0        3.433600    1.054775   -0.659966
     18          1           0        5.387738    0.197636   -0.132825
     19          1           0        3.740380    1.940131   -1.199228
     20          1           0       -3.026871    2.267493    2.011740
     21          1           0       -2.561312    2.939286    0.449958
     22          1           0       -1.346108    2.167466    1.470591
 ---------------------------------------------------------------------

 The electronic state is 1-A.
 Alpha  occ. eigenvalues --  -88.88453 -88.88290 -88.87959 -10.22286 -10.21336
 Alpha  occ. eigenvalues --  -10.21170 -10.21111 -10.21071 -10.20446 -10.19370
 Alpha  occ. eigenvalues --  -10.19317 -10.19252 -10.18052 -10.17409  -7.97027
 Alpha  occ. eigenvalues --   -7.96863  -7.96570  -5.93339  -5.93181  -5.92974
 Alpha  occ. eigenvalues --   -5.92862  -5.92818  -5.92576  -5.92485  -5.92395
 Alpha  occ. eigenvalues --   -5.92163  -0.91658  -0.89160  -0.84919  -0.77562
 Alpha  occ. eigenvalues --   -0.77229  -0.75612  -0.71430  -0.70497  -0.67958
 Alpha  occ. eigenvalues --   -0.61363  -0.57657  -0.56819  -0.53881  -0.52173
 Alpha  occ. eigenvalues --   -0.49977  -0.49695  -0.44526  -0.43811  -0.43521
 Alpha  occ. eigenvalues --   -0.42089  -0.41464  -0.39985  -0.39473  -0.39024
 Alpha  occ. eigenvalues --   -0.37736  -0.37396  -0.36661  -0.34886  -0.34247
 Alpha  occ. eigenvalues --   -0.33782  -0.29111  -0.25622  -0.25142  -0.23785
 Alpha  occ. eigenvalues --   -0.21644
 Alpha virt. eigenvalues --   -0.05288  -0.02339  -0.00605  -0.00413  -0.00045
 Alpha virt. eigenvalues --    0.00500   0.00892   0.01517   0.01926   0.02522
 Alpha virt. eigenvalues --    0.03097   0.03403   0.03791   0.04186   0.04545

 Mulliken charges:
               1
     1  C    0.065645
     2  C   -0.476626
     3  C    0.383637
     4  C   -0.818573
     5  C   -0.165029
     6  H    0.125921
     7  S   -0.262879
     8  H    0.160440
     9  C    0.759112
    10  S   -0.520674
    11  C    0.260483
    12  C   -0.548968
    13  C    0.561976
    14  H    0.141234
    15  S   -0.380880
    16  C   -0.214417
    17  C    0.153565
    18  H    0.167472
    19  H    0.135556
    20  H    0.145400
    21  H    0.167627
    22  H    0.159980
 Sum of Mulliken charges =  -0.00000

 Dipole moment (field-independent basis, Debye):
    X=             -0.3265    Y=              0.7903    Z=              0.4425  Tot=              0.9628
 Quadrupole moment (field-independent basis, Debye-Ang):
   XX=            -88.0992   YY=           -100.2191   ZZ=           -106.7417
   XY=              1.7750   XZ=             -2.8175   YZ=             -1.0580

 Normal termination of Gaussian 16 at Sun Oct 17 00:09:06 2021.
