 Gaussian 16, Revision C.01,
 Gaussian 16:  ES64L-G16RevC.01  3-Jul-2019

 -------------------------------------
 # opt=modredundant b3lyp/6-311+g(d,p)
 -------------------------------------

 -------------
 pBTTT_150.pdb
 -------------
 Symbolic Z-matrix:
 Charge =  0 Multiplicity = 1

 SCF Done:  E(RB3LYP) =  -1618.67737654     A.U. after   17 cycles
 SCF Done:  E(RB3LYP) =  -1618.70614960     A.U. after   15 cycles
 SCF Done:  E(RB3LYP) =  -1618.71381661     A.U. after   14 cycles
 SCF Done:  E(RB3LYP) =  -1618.71587487     A.U. after   13 cycles
 SCF Done:  E(RB3LYP) =  -1618.71612852     A.U. after   13 cycles
 SCF Done:  E(RB3LYP) =  -1618.71679699     A.U. after   12 cycles
 SCF Done:  E(RB3LYP) =  -1618.71684941     A.U. after   12 cycles
 SCF Done:  E(RB3LYP) =  -1618.71696139     A.U. after   11 cycles
 SCF Done:  E(RB3LYP) =  -1618.71701712     A.U. after   11 cycles
 SCF Done:  E(RB3LYP) =  -1618.71704372     A.U. after   11 cycles
 SCF Done:  E(RB3LYP) =  -1618.71705426     A.U. after   11 cycles
 SCF Done:  E(RB3LYP) =  -1618.71705670     A.U. after   10 cycles
 SCF Done:  E(RB3LYP) =  -1618.71705697     A.U. after    9 cycles
 Optimization completed.
    -- Stationary point found.

                         Standard orientation:
 ---------------------------------------------------------------------
 Center     Atomic      Atomic             Coordinates (Angstroms)
 Number     Number       Type             X           Y           Z
 ---------------------------------------------------------------------
      1          6           0       -3.957955    0.782225    0.055564
      2          6           0       -2.579188    1.120521    0.215488
      3          6           0       -1.749111    0.037665   -0.014441
      4          6           0       -2.128174    2.496006    0.624896
      5          6           0       -4.172093   -0.520933   -0.285686
      6          1           0       -4.760264    1.493562    0.207448
      7         16           0       -2.685392   -1.386958   -0.442293
      8          1           0       -5.111047   -1.026512   -0.450892
      9          6           0       -0.299073   -0.024862    0.013002
     10         16           0        0.517861   -1.532183    0.471980
     11          6           0        2.081498   -0.806862    0.223300
     12          6           0        1.949016    0.517891   -0.170844
     13          6           0        0.607297    0.962563   -0.299423
     14          1           0        0.316746    1.943992   -0.643085
     15         16           0        3.515215    1.244626   -0.418053
     16          6           0        4.305376   -0.254072    0.017264
     17          6           0        3.428809   -1.252513    0.332390
     18          1           0        5.383680   -0.298927    0.011808
     19          1           0        3.735028   -2.247142    0.625143
     20          1           0       -2.908640    2.996296    1.202789
     21          1           0       -1.913171    3.128445   -0.243981
     22          1           0       -1.223704    2.456738    1.235563
 ---------------------------------------------------------------------

 The electronic state is 1-A.
 Alpha  occ. eigenvalues --  -88.88466 -88.88289 -88.88066 -10.22526 -10.21627
 Alpha  occ. eigenvalues --  -10.21193 -10.21120 -10.21048 -10.20513 -10.19371
 Alpha  occ. eigenvalues --  -10.19356 -10.19310 -10.18179 -10.17767  -7.97041
 Alpha  occ. eigenvalues --   -7.96871  -7.96689  -5.93353  -5.93193  -5.92989
 Alpha  occ. eigenvalues --   -5.92985  -5.92831  -5.92607  -5.92589  -5.92393
 Alpha  occ. eigenvalues --   -5.92274  -0.91718  -0.89292  -0.84954  -0.78043
 Alpha  occ. eigenvalues --   -0.76939  -0.75894  -0.71454  -0.70566  -0.68185
 Alpha  occ. eigenvalues --   -0.61499  -0.57518  -0.57232  -0.54140  -0.52136
 Alpha  occ. eigenvalues --   -0.50056  -0.49766  -0.44602  -0.43866  -0.43695
 Alpha  occ. eigenvalues --   -0.41995  -0.41607  -0.40219  -0.39732  -0.38960
 Alpha  occ. eigenvalues --   -0.37917  -0.37837  -0.36439  -0.35070  -0.34295
 Alpha  occ. eigenvalues --   -0.33908  -0.29249  -0.26393  -0.25473  -0.23797
 Alpha  occ. eigenvalues --   -0.20829
 Alpha virt. eigenvalues --   -0.05966  -0.01979  -0.00833  -0.00464   0.00304
 Alpha virt. eigenvalues --    0.00729   0.01042   0.01495   0.02056   0.02754
 Alpha virt. eigenvalues --    0.03028   0.03412   0.03813   0.04279   0.04614

 Mulliken charges:
               1
     1  C    0.024040
     2  C    0.460982
     3  C    0.407694
     4  C   -1.059727
     5  C   -0.054037
     6  H    0.123276
     7  S   -0.470423
     8  H    0.159662
     9  C    0.388585
    10  S   -0.521138
    11  C    0.444976
    12  C    0.152466
    13  C   -0.155562
    14  H    0.138091
    15  S   -0.404686
    16  C   -0.113977
    17  C   -0.296703
    18  H    0.167256
    19  H    0.135776
    20  H    0.144949
    21  H    0.166847
    22  H    0.161654
 Sum of Mulliken charges =  -0.00000

 Dipole moment (field-independent basis, Debye):
    X=             -0.2999    Y=              0.8770    Z=              0.1762  Tot=              0.9435
 Quadrupole moment (field-independent basis, Debye-Ang):
   XX=            -88.1958   YY=            -98.0796   ZZ=           -108.9182
   XY=             -5.1117   XZ=              0.7127   YZ=             -0.5969

 Normal termination of Gaussian 16 at Sun Oct 17 01:26:36 2021.
