 Gaussian 16, Revision C.01,
 Gaussian 16:  ES64L-G16RevC.01  3-Jul-2019

 -------------------------------------
 # opt=modredundant b3lyp/6-311+g(d,p)
 -------------------------------------

 -------------
 pBTTT_170.pdb
 -------------
 Symbolic Z-matrix:
 Charge =  0 Multiplicity = 1

 SCF Done:  E(RB3LYP) =  -1618.67742406     A.U. after   16 cycles
 SCF Done:  E(RB3LYP) =  -1618.70562031     A.U. after   15 cycles
 SCF Done:  E(RB3LYP) =  -1618.71296748     A.U. after   14 cycles
 SCF Done:  E(RB3LYP) =  -1618.71491052     A.U. after   13 cycles
 SCF Done:  E(RB3LYP) =  -1618.71536941     A.U. after   12 cycles
 SCF Done:  E(RB3LYP) =  -1618.71552410     A.U. after   12 cycles
 SCF Done:  E(RB3LYP) =  -1618.71564390     A.U. after   12 cycles
 SCF Done:  E(RB3LYP) =  -1618.71564345     A.U. after   11 cycles
 SCF Done:  E(RB3LYP) =  -1618.71565773     A.U. after   11 cycles
 SCF Done:  E(RB3LYP) =  -1618.71566378     A.U. after   10 cycles
 SCF Done:  E(RB3LYP) =  -1618.71566812     A.U. after   11 cycles
 SCF Done:  E(RB3LYP) =  -1618.71566916     A.U. after   10 cycles
 SCF Done:  E(RB3LYP) =  -1618.71566934     A.U. after    8 cycles
 Optimization completed.
    -- Stationary point found.

                         Standard orientation:
 ---------------------------------------------------------------------
 Center     Atomic      Atomic             Coordinates (Angstroms)
 Number     Number       Type             X           Y           Z
 ---------------------------------------------------------------------
      1          6           0       -3.962332    0.790364   -0.005610
      2          6           0       -2.584932    1.153396    0.083764
      3          6           0       -1.747866    0.049311    0.017644
      4          6           0       -2.148310    2.581991    0.257892
      5          6           0       -4.176647   -0.549573   -0.142078
      6          1           0       -4.764322    1.516567    0.039009
      7         16           0       -2.688389   -1.424088   -0.176186
      8          1           0       -5.114134   -1.077664   -0.222031
      9          6           0       -0.298219   -0.014499    0.034119
     10         16           0        0.515118   -1.585880    0.202705
     11          6           0        2.082936   -0.837671    0.088549
     12          6           0        1.957120    0.535984   -0.060814
     13          6           0        0.619569    1.006802   -0.097895
     14          1           0        0.347874    2.039659   -0.242613
     15         16           0        3.527490    1.287221   -0.173147
     16          6           0        4.309412   -0.269552   -0.014551
     17          6           0        3.426847   -1.303667    0.116557
     18          1           0        5.387418   -0.318833   -0.028946
     19          1           0        3.727205   -2.336417    0.225796
     20          1           0       -3.005150    3.212110    0.503456
     21          1           0       -1.697737    2.985447   -0.655818
     22          1           0       -1.414128    2.685774    1.061748
 ---------------------------------------------------------------------

 The electronic state is 1-A.
 Alpha  occ. eigenvalues --  -88.88457 -88.88267 -88.88121 -10.22721 -10.21833
 Alpha  occ. eigenvalues --  -10.21174 -10.21114 -10.21039 -10.20540 -10.19436
 Alpha  occ. eigenvalues --  -10.19374 -10.19260 -10.18229 -10.18007  -7.97032
 Alpha  occ. eigenvalues --   -7.96858  -7.96754  -5.93344  -5.93184  -5.93052
 Alpha  occ. eigenvalues --   -5.92980  -5.92821  -5.92672  -5.92579  -5.92370
 Alpha  occ. eigenvalues --   -5.92334  -0.91733  -0.89360  -0.84951  -0.78198
 Alpha  occ. eigenvalues --   -0.76936  -0.75995  -0.71436  -0.70582  -0.68354
 Alpha  occ. eigenvalues --   -0.61556  -0.57566  -0.57404  -0.54078  -0.52251
 Alpha  occ. eigenvalues --   -0.50126  -0.49791  -0.44590  -0.43919  -0.43848
 Alpha  occ. eigenvalues --   -0.41961  -0.41755  -0.40414  -0.39781  -0.38811
 Alpha  occ. eigenvalues --   -0.38204  -0.37973  -0.36358  -0.35177  -0.34424
 Alpha  occ. eigenvalues --   -0.33698  -0.29337  -0.26758  -0.25609  -0.23745
 Alpha  occ. eigenvalues --   -0.20487
 Alpha virt. eigenvalues --   -0.06328  -0.01799  -0.01095  -0.00502   0.00321
 Alpha virt. eigenvalues --    0.00747   0.01297   0.01463   0.02093   0.02737
 Alpha virt. eigenvalues --    0.03249   0.03490   0.03835   0.04337   0.04744

 Mulliken charges:
               1
     1  C    0.130732
     2  C    0.421700
     3  C    0.646567
     4  C   -1.116190
     5  C   -0.126840
     6  H    0.120147
     7  S   -0.568377
     8  H    0.158776
     9  C    0.147734
    10  S   -0.573829
    11  C    0.392604
    12  C    0.207106
    13  C    0.022159
    14  H    0.134694
    15  S   -0.407995
    16  C   -0.112865
    17  C   -0.252394
    18  H    0.167039
    19  H    0.134866
    20  H    0.146949
    21  H    0.166837
    22  H    0.160581
 Sum of Mulliken charges =  -0.00000

 Dipole moment (field-independent basis, Debye):
    X=             -0.3561    Y=              0.8968    Z=              0.0249  Tot=              0.9653
 Quadrupole moment (field-independent basis, Debye-Ang):
   XX=            -88.0161   YY=            -97.1570   ZZ=           -109.8411
   XY=             -5.2849   XZ=              0.3018   YZ=             -0.1671

 Normal termination of Gaussian 16 at Sun Oct 17 01:29:20 2021.
