 Gaussian 16, Revision C.01,
 Gaussian 16:  ES64L-G16RevC.01  3-Jul-2019

 -------------------------------------
 # opt=modredundant b3lyp/6-311+g(d,p)
 -------------------------------------

 ------------
 pBTTT_25.pdb
 ------------
 Symbolic Z-matrix:
 Charge =  0 Multiplicity = 1

 SCF Done:  E(RB3LYP) =  -1618.67716264     A.U. after   17 cycles
 SCF Done:  E(RB3LYP) =  -1618.70585085     A.U. after   15 cycles
 SCF Done:  E(RB3LYP) =  -1618.71373772     A.U. after   14 cycles
 SCF Done:  E(RB3LYP) =  -1618.71563440     A.U. after   15 cycles
 SCF Done:  E(RB3LYP) =  -1618.71605498     A.U. after   14 cycles
 SCF Done:  E(RB3LYP) =  -1618.71655183     A.U. after   12 cycles
 SCF Done:  E(RB3LYP) =  -1618.71660723     A.U. after   12 cycles
 SCF Done:  E(RB3LYP) =  -1618.71664832     A.U. after   12 cycles
 SCF Done:  E(RB3LYP) =  -1618.71668118     A.U. after   11 cycles
 SCF Done:  E(RB3LYP) =  -1618.71672966     A.U. after   11 cycles
 SCF Done:  E(RB3LYP) =  -1618.71674410     A.U. after   11 cycles
 SCF Done:  E(RB3LYP) =  -1618.71675042     A.U. after   11 cycles
 SCF Done:  E(RB3LYP) =  -1618.71675128     A.U. after    9 cycles
 SCF Done:  E(RB3LYP) =  -1618.71675140     A.U. after    9 cycles
 Optimization completed.
    -- Stationary point found.

                         Standard orientation:
 ---------------------------------------------------------------------
 Center     Atomic      Atomic             Coordinates (Angstroms)
 Number     Number       Type             X           Y           Z
 ---------------------------------------------------------------------
      1          6           0        4.039015    0.270623    0.135339
      2          6           0        2.726610    0.829674    0.220810
      3          6           0        1.741944   -0.123008    0.023013
      4          6           0        2.502891    2.289180    0.517674
      5          6           0        4.057534   -1.067322   -0.126291
      6          1           0        4.937167    0.858675    0.276997
      7         16           0        2.458224   -1.697772   -0.296225
      8          1           0        4.910067   -1.720918   -0.228958
      9          6           0        0.293904   -0.014904    0.017871
     10         16           0       -0.526134    1.514445   -0.356609
     11          6           0       -2.089035    0.765435   -0.192730
     12          6           0       -1.956365   -0.580034    0.123638
     13          6           0       -0.616158   -1.022988    0.249758
     14          1           0       -0.322796   -2.029794    0.513155
     15         16           0       -3.522810   -1.324917    0.306030
     16          6           0       -4.313027    0.195430   -0.048324
     17          6           0       -3.436310    1.214149   -0.289406
     18          1           0       -5.391482    0.235460   -0.059035
     19          1           0       -3.742439    2.223723   -0.525724
     20          1           0        3.404838    2.726791    0.950615
     21          1           0        1.682832    2.443358    1.222211
     22          1           0        2.267305    2.857193   -0.388524
 ---------------------------------------------------------------------

 The electronic state is 1-A.
 Alpha  occ. eigenvalues --  -88.88410 -88.88406 -88.88041 -10.22592 -10.21718
 Alpha  occ. eigenvalues --  -10.21167 -10.21088 -10.21009 -10.20513 -10.19387
 Alpha  occ. eigenvalues --  -10.19363 -10.19159 -10.18165 -10.17653  -7.96985
 Alpha  occ. eigenvalues --   -7.96984  -7.96668  -5.93307  -5.93297  -5.92967
 Alpha  occ. eigenvalues --   -5.92942  -5.92932  -5.92587  -5.92531  -5.92507
 Alpha  occ. eigenvalues --   -5.92248  -0.91711  -0.89279  -0.84944  -0.77852
 Alpha  occ. eigenvalues --   -0.77264  -0.75766  -0.71438  -0.70475  -0.68206
 Alpha  occ. eigenvalues --   -0.61502  -0.57947  -0.56989  -0.53487  -0.52358
 Alpha  occ. eigenvalues --   -0.50163  -0.49771  -0.44536  -0.43927  -0.43644
 Alpha  occ. eigenvalues --   -0.42034  -0.41630  -0.40206  -0.39507  -0.38906
 Alpha  occ. eigenvalues --   -0.38053  -0.37799  -0.36712  -0.34799  -0.34320
 Alpha  occ. eigenvalues --   -0.33887  -0.29286  -0.26508  -0.25502  -0.23811
 Alpha  occ. eigenvalues --   -0.20610
 Alpha virt. eigenvalues --   -0.06105  -0.01670  -0.00572  -0.00396   0.00141
 Alpha virt. eigenvalues --    0.00476   0.01243   0.01473   0.02051   0.02610
 Alpha virt. eigenvalues --    0.03012   0.03380   0.03829   0.04250   0.04807

 Mulliken charges:
               1
     1  C    0.037588
     2  C    0.237940
     3  C    0.555351
     4  C   -0.955882
     5  C   -0.086923
     6  H    0.121609
     7  S   -0.542897
     8  H    0.159940
     9  C    0.422482
    10  S   -0.561255
    11  C    0.343726
    12  C    0.178206
    13  C   -0.067835
    14  H    0.140569
    15  S   -0.404841
    16  C   -0.134930
    17  C   -0.229781
    18  H    0.167039
    19  H    0.134575
    20  H    0.143662
    21  H    0.165491
    22  H    0.176166
 Sum of Mulliken charges =  -0.00000

 Dipole moment (field-independent basis, Debye):
    X=              0.4567    Y=              0.9128    Z=              0.2215  Tot=              1.0444
 Quadrupole moment (field-independent basis, Debye-Ang):
   XX=            -87.8505   YY=            -97.8065   ZZ=           -109.3306
   XY=             -1.9275   XZ=              1.2686   YZ=             -0.5140

 Normal termination of Gaussian 16 at Sun Oct 17 00:58:39 2021.
