 Gaussian 16, Revision C.01,
 Gaussian 16:  ES64L-G16RevC.01  3-Jul-2019

 -------------------------------------
 # opt=modredundant b3lyp/6-311+g(d,p)
 -------------------------------------

 --------------
 pBTTT_-130.pdb
 --------------
 Symbolic Z-matrix:
 Charge =  0 Multiplicity = 1

 SCF Done:  E(RB3LYP) =  -1618.67521254     A.U. after   17 cycles
 SCF Done:  E(RB3LYP) =  -1618.70491593     A.U. after   14 cycles
 SCF Done:  E(RB3LYP) =  -1618.71337769     A.U. after   14 cycles
 SCF Done:  E(RB3LYP) =  -1618.71523977     A.U. after   15 cycles
 SCF Done:  E(RB3LYP) =  -1618.71570914     A.U. after   15 cycles
 SCF Done:  E(RB3LYP) =  -1618.71632074     A.U. after   13 cycles
 SCF Done:  E(RB3LYP) =  -1618.71636022     A.U. after   13 cycles
 SCF Done:  E(RB3LYP) =  -1618.71664391     A.U. after   12 cycles
 SCF Done:  E(RB3LYP) =  -1618.71699770     A.U. after   14 cycles
 SCF Done:  E(RB3LYP) =  -1618.71716032     A.U. after   14 cycles
 SCF Done:  E(RB3LYP) =  -1618.71726618     A.U. after   13 cycles
 SCF Done:  E(RB3LYP) =  -1618.71731891     A.U. after   13 cycles
 SCF Done:  E(RB3LYP) =  -1618.71732482     A.U. after   11 cycles
 SCF Done:  E(RB3LYP) =  -1618.71732687     A.U. after   11 cycles
 SCF Done:  E(RB3LYP) =  -1618.71732704     A.U. after   10 cycles
 Optimization completed.
    -- Stationary point found.

                         Standard orientation:
 ---------------------------------------------------------------------
 Center     Atomic      Atomic             Coordinates (Angstroms)
 Number     Number       Type             X           Y           Z
 ---------------------------------------------------------------------
      1          6           0        3.954827    0.761365    0.144134
      2          6           0        2.570614    1.072241    0.325876
      3          6           0        1.751276    0.034035   -0.069919
      4          6           0        2.100044    2.376439    0.909234
      5          6           0        4.177142   -0.483894   -0.365774
      6          1           0        4.752988    1.445914    0.403397
      7         16           0        2.696179   -1.324536   -0.660252
      8          1           0        5.120957   -0.959870   -0.583915
      9          6           0        0.297972   -0.039693   -0.043179
     10         16           0       -0.513150   -1.440662    0.681256
     11          6           0       -2.078228   -0.757599    0.339235
     12          6           0       -1.948787    0.481108   -0.275540
     13          6           0       -0.606366    0.887948   -0.498959
     14          1           0       -0.308874    1.800449   -0.996001
     15         16           0       -3.516416    1.163866   -0.619207
     16          6           0       -4.303799   -0.235756    0.073977
     17          6           0       -3.425840   -1.171770    0.539535
     18          1           0       -5.382224   -0.274574    0.092624
     19          1           0       -3.730465   -2.101436    0.999641
     20          1           0        2.766911    2.699538    1.712971
     21          1           0        1.090607    2.292386    1.314418
     22          1           0        2.091140    3.172359    0.156401
 ---------------------------------------------------------------------

 The electronic state is 1-A.
 Alpha  occ. eigenvalues --  -88.88466 -88.88278 -88.87988 -10.22340 -10.21437
 Alpha  occ. eigenvalues --  -10.21177 -10.21113 -10.21058 -10.20503 -10.19363
 Alpha  occ. eigenvalues --  -10.19337 -10.19325 -10.18113 -10.17550  -7.97040
 Alpha  occ. eigenvalues --   -7.96852  -7.96605  -5.93352  -5.93170  -5.92988
 Alpha  occ. eigenvalues --   -5.92898  -5.92808  -5.92589  -5.92521  -5.92382
 Alpha  occ. eigenvalues --   -5.92196  -0.91678  -0.89212  -0.84932  -0.77869
 Alpha  occ. eigenvalues --   -0.76957  -0.75758  -0.71443  -0.70552  -0.68029
 Alpha  occ. eigenvalues --   -0.61419  -0.57481  -0.57007  -0.54215  -0.52061
 Alpha  occ. eigenvalues --   -0.49994  -0.49723  -0.44602  -0.43778  -0.43608
 Alpha  occ. eigenvalues --   -0.42037  -0.41498  -0.40040  -0.39658  -0.39018
 Alpha  occ. eigenvalues --   -0.37772  -0.37594  -0.36497  -0.34960  -0.34265
 Alpha  occ. eigenvalues --   -0.33889  -0.29150  -0.25853  -0.25344  -0.23771
 Alpha  occ. eigenvalues --   -0.21361
 Alpha virt. eigenvalues --   -0.05476  -0.02341  -0.00613  -0.00380   0.00254
 Alpha virt. eigenvalues --    0.00673   0.00814   0.01527   0.01952   0.02772
 Alpha virt. eigenvalues --    0.02907   0.03316   0.03857   0.04032   0.04472

 Mulliken charges:
               1
     1  C    0.047773
     2  C   -0.166418
     3  C    0.619309
     4  C   -0.968567
     5  C   -0.106377
     6  H    0.125612
     7  S   -0.357798
     8  H    0.160194
     9  C    0.492713
    10  S   -0.567981
    11  C    0.316827
    12  C   -0.254968
    13  C    0.338636
    14  H    0.133072
    15  S   -0.398823
    16  C   -0.181576
    17  C   -0.011821
    18  H    0.167583
    19  H    0.135755
    20  H    0.144728
    21  H    0.166163
    22  H    0.165965
 Sum of Mulliken charges =  -0.00000

 Dipole moment (field-independent basis, Debye):
    X=              0.2661    Y=              0.8662    Z=              0.3553  Tot=              0.9733
 Quadrupole moment (field-independent basis, Debye-Ang):
   XX=            -88.3604   YY=            -99.3637   ZZ=           -107.5712
   XY=              4.7773   XZ=             -1.0551   YZ=             -1.0010

 Normal termination of Gaussian 16 at Sat Oct 16 23:28:01 2021.
