 Gaussian 16, Revision C.01,
 Gaussian 16:  ES64L-G16RevC.01  3-Jul-2019

 -------------------------------------
 # opt=modredundant b3lyp/6-311+g(d,p)
 -------------------------------------

 -------------
 pBTTT_100.pdb
 -------------
 Symbolic Z-matrix:
 Charge =  0 Multiplicity = 1

 SCF Done:  E(RB3LYP) =  -1618.67451977     A.U. after   17 cycles
 SCF Done:  E(RB3LYP) =  -1618.70456087     A.U. after   16 cycles
 SCF Done:  E(RB3LYP) =  -1618.71278640     A.U. after   16 cycles
 SCF Done:  E(RB3LYP) =  -1618.71470288     A.U. after   15 cycles
 SCF Done:  E(RB3LYP) =  -1618.71481666     A.U. after   15 cycles
 SCF Done:  E(RB3LYP) =  -1618.71538207     A.U. after   13 cycles
 SCF Done:  E(RB3LYP) =  -1618.71534279     A.U. after   13 cycles
 SCF Done:  E(RB3LYP) =  -1618.71542888     A.U. after   13 cycles
 SCF Done:  E(RB3LYP) =  -1618.71545000     A.U. after   13 cycles
 SCF Done:  E(RB3LYP) =  -1618.71547929     A.U. after   12 cycles
 SCF Done:  E(RB3LYP) =  -1618.71623429     A.U. after   15 cycles
 SCF Done:  E(RB3LYP) =  -1618.71616100     A.U. after   15 cycles
 SCF Done:  E(RB3LYP) =  -1618.71601870     A.U. after   15 cycles
 SCF Done:  E(RB3LYP) =  -1618.71634824     A.U. after   13 cycles
 SCF Done:  E(RB3LYP) =  -1618.71635911     A.U. after   13 cycles
 SCF Done:  E(RB3LYP) =  -1618.71637064     A.U. after   12 cycles
 SCF Done:  E(RB3LYP) =  -1618.71637106     A.U. after   11 cycles
 SCF Done:  E(RB3LYP) =  -1618.71637147     A.U. after   10 cycles
 SCF Done:  E(RB3LYP) =  -1618.71637257     A.U. after   11 cycles
 SCF Done:  E(RB3LYP) =  -1618.71637275     A.U. after   10 cycles
 Optimization completed.
    -- Stationary point found.

                         Standard orientation:
 ---------------------------------------------------------------------
 Center     Atomic      Atomic             Coordinates (Angstroms)
 Number     Number       Type             X           Y           Z
 ---------------------------------------------------------------------
      1          6           0       -3.970721    0.678202    0.177581
      2          6           0       -2.591235    0.967783    0.428556
      3          6           0       -1.756169    0.013414   -0.107532
      4          6           0       -2.131538    2.174269    1.199191
      5          6           0       -4.168307   -0.475233   -0.522674
      6          1           0       -4.780869    1.311838    0.516846
      7         16           0       -2.673323   -1.251091   -0.910205
      8          1           0       -5.102988   -0.915053   -0.836229
      9          6           0       -0.294648   -0.048871   -0.057275
     10         16           0        0.514458   -1.102223    1.116597
     11          6           0        2.079654   -0.579086    0.562032
     12          6           0        1.951335    0.354357   -0.458746
     13          6           0        0.607474    0.654508   -0.812103
     14          1           0        0.304159    1.345926   -1.586190
     15         16           0        3.518877    0.880292   -1.013350
     16          6           0        4.305480   -0.169885    0.142638
     17          6           0        3.428148   -0.882130    0.908072
     18          1           0        5.383920   -0.192330    0.180735
     19          1           0        3.732872   -1.581556    1.674035
     20          1           0       -2.599608    2.205525    2.187840
     21          1           0       -2.404896    3.099126    0.681011
     22          1           0       -1.049612    2.170909    1.334836
 ---------------------------------------------------------------------

 The electronic state is 1-A.
 Alpha  occ. eigenvalues --  -88.88478 -88.88231 -88.87869 -10.22157 -10.21200
 Alpha  occ. eigenvalues --  -10.21169 -10.21103 -10.21098 -10.20471 -10.19391
 Alpha  occ. eigenvalues --  -10.19371 -10.19277 -10.18009 -10.17367  -7.97052
 Alpha  occ. eigenvalues --   -7.96799  -7.96481  -5.93363  -5.93114  -5.92999
 Alpha  occ. eigenvalues --   -5.92771  -5.92751  -5.92601  -5.92396  -5.92338
 Alpha  occ. eigenvalues --   -5.92077  -0.91634  -0.89103  -0.84903  -0.77624
 Alpha  occ. eigenvalues --   -0.77053  -0.75554  -0.71422  -0.70542  -0.67873
 Alpha  occ. eigenvalues --   -0.61308  -0.57485  -0.56698  -0.54264  -0.52042
 Alpha  occ. eigenvalues --   -0.49920  -0.49683  -0.44580  -0.43635  -0.43606
 Alpha  occ. eigenvalues --   -0.42112  -0.41429  -0.39922  -0.39493  -0.39008
 Alpha  occ. eigenvalues --   -0.37664  -0.37342  -0.36523  -0.34899  -0.34272
 Alpha  occ. eigenvalues --   -0.33659  -0.29079  -0.25400  -0.24477  -0.23748
 Alpha  occ. eigenvalues --   -0.22451
 Alpha virt. eigenvalues --   -0.04664  -0.03078  -0.00541  -0.00295   0.00129
 Alpha virt. eigenvalues --    0.00517   0.00734   0.01665   0.01758   0.02740
 Alpha virt. eigenvalues --    0.02917   0.03161   0.03582   0.03947   0.04455

 Mulliken charges:
               1
     1  C   -0.046957
     2  C   -0.127631
     3  C    0.275349
     4  C   -0.702233
     5  C   -0.085109
     6  H    0.127226
     7  S   -0.252092
     8  H    0.160063
     9  C    0.222881
    10  S   -0.561769
    11  C    0.142343
    12  C   -0.536214
    13  C    0.613835
    14  H    0.133567
    15  S   -0.392071
    16  C   -0.226229
    17  C    0.467235
    18  H    0.167516
    19  H    0.135664
    20  H    0.154767
    21  H    0.157189
    22  H    0.172669
 Sum of Mulliken charges =  -0.00000

 Dipole moment (field-independent basis, Debye):
    X=             -0.2223    Y=              0.8555    Z=              0.4828  Tot=              1.0071
 Quadrupole moment (field-independent basis, Debye-Ang):
   XX=            -88.3630   YY=           -102.4979   ZZ=           -104.4217
   XY=             -3.9403   XZ=              1.9358   YZ=             -1.2167

 Normal termination of Gaussian 16 at Sun Oct 17 01:44:05 2021.
