 Gaussian 16, Revision C.01,
 Gaussian 16:  ES64L-G16RevC.01  3-Jul-2019

 -------------------------------------
 # opt=modredundant b3lyp/6-311+g(d,p)
 -------------------------------------

 -------------
 pBTTT_-40.pdb
 -------------
 Symbolic Z-matrix:
 Charge =  0 Multiplicity = 1

 SCF Done:  E(RB3LYP) =  -1618.67788837     A.U. after   17 cycles
 SCF Done:  E(RB3LYP) =  -1618.70684382     A.U. after   14 cycles
 SCF Done:  E(RB3LYP) =  -1618.71446653     A.U. after   15 cycles
 SCF Done:  E(RB3LYP) =  -1618.71619629     A.U. after   14 cycles
 SCF Done:  E(RB3LYP) =  -1618.71634883     A.U. after   14 cycles
 SCF Done:  E(RB3LYP) =  -1618.71688291     A.U. after   13 cycles
 SCF Done:  E(RB3LYP) =  -1618.71691330     A.U. after   13 cycles
 SCF Done:  E(RB3LYP) =  -1618.71701109     A.U. after   12 cycles
 SCF Done:  E(RB3LYP) =  -1618.71706787     A.U. after   12 cycles
 SCF Done:  E(RB3LYP) =  -1618.71713901     A.U. after   12 cycles
 SCF Done:  E(RB3LYP) =  -1618.71718828     A.U. after   12 cycles
 SCF Done:  E(RB3LYP) =  -1618.71721731     A.U. after   12 cycles
 SCF Done:  E(RB3LYP) =  -1618.71721908     A.U. after   10 cycles
 Optimization completed.
    -- Stationary point found.

                         Standard orientation:
 ---------------------------------------------------------------------
 Center     Atomic      Atomic             Coordinates (Angstroms)
 Number     Number       Type             X           Y           Z
 ---------------------------------------------------------------------
      1          6           0       -4.033529    0.277241    0.213476
      2          6           0       -2.714843    0.813893    0.341851
      3          6           0       -1.744114   -0.117588    0.025558
      4          6           0       -2.464840    2.225897    0.802018
      5          6           0       -4.065173   -1.025445   -0.190064
      6          1           0       -4.925838    0.850489    0.432450
      7         16           0       -2.473624   -1.644682   -0.448710
      8          1           0       -4.925678   -1.657402   -0.348152
      9          6           0       -0.293358   -0.014930    0.022301
     10         16           0        0.522208    1.448059   -0.561091
     11          6           0        2.086445    0.730540   -0.295621
     12          6           0        1.954929   -0.562077    0.195172
     13          6           0        0.613635   -0.985893    0.379187
     14          1           0        0.316059   -1.948568    0.771471
     15         16           0        3.521521   -1.275033    0.475628
     16          6           0        4.310865    0.185811   -0.074321
     17          6           0        3.434141    1.163564   -0.447918
     18          1           0        5.389319    0.225087   -0.089901
     19          1           0        3.740371    2.133134   -0.815266
     20          1           0       -3.273200    2.558369    1.457615
     21          1           0       -2.421927    2.923480   -0.041309
     22          1           0       -1.525744    2.315815    1.350029
 ---------------------------------------------------------------------

 The electronic state is 1-A.
 Alpha  occ. eigenvalues --  -88.88435 -88.88366 -88.88014 -10.22460 -10.21547
 Alpha  occ. eigenvalues --  -10.21173 -10.21116 -10.21039 -10.20466 -10.19371
 Alpha  occ. eigenvalues --  -10.19311 -10.19225 -10.18114 -10.17527  -7.97008
 Alpha  occ. eigenvalues --   -7.96944  -7.96633  -5.93321  -5.93265  -5.92956
 Alpha  occ. eigenvalues --   -5.92928  -5.92901  -5.92556  -5.92550  -5.92470
 Alpha  occ. eigenvalues --   -5.92219  -0.91696  -0.89229  -0.84942  -0.77712
 Alpha  occ. eigenvalues --   -0.77254  -0.75706  -0.71444  -0.70476  -0.68092
 Alpha  occ. eigenvalues --   -0.61443  -0.57817  -0.56931  -0.53644  -0.52276
 Alpha  occ. eigenvalues --   -0.50068  -0.49735  -0.44527  -0.43885  -0.43560
 Alpha  occ. eigenvalues --   -0.42054  -0.41551  -0.40102  -0.39488  -0.38992
 Alpha  occ. eigenvalues --   -0.37893  -0.37595  -0.36718  -0.34851  -0.34238
 Alpha  occ. eigenvalues --   -0.33926  -0.29200  -0.26159  -0.25398  -0.23798
 Alpha  occ. eigenvalues --   -0.20982
 Alpha virt. eigenvalues --   -0.05813  -0.01857  -0.00595  -0.00432   0.00027
 Alpha virt. eigenvalues --    0.00493   0.01047   0.01468   0.01983   0.02590
 Alpha virt. eigenvalues --    0.03050   0.03448   0.03901   0.04096   0.04710

 Mulliken charges:
               1
     1  C   -0.038121
     2  C   -0.177640
     3  C    0.470532
     4  C   -0.869904
     5  C   -0.085718
     6  H    0.125019
     7  S   -0.395455
     8  H    0.160038
     9  C    0.519741
    10  S   -0.574438
    11  C    0.278491
    12  C   -0.642534
    13  C    0.762865
    14  H    0.143223
    15  S   -0.397029
    16  C   -0.218433
    17  C    0.157953
    18  H    0.167221
    19  H    0.135093
    20  H    0.143285
    21  H    0.173595
    22  H    0.162216
 Sum of Mulliken charges =  -0.00000

 Dipole moment (field-independent basis, Debye):
    X=             -0.3871    Y=              0.8666    Z=              0.3191  Tot=              1.0013
 Quadrupole moment (field-independent basis, Debye-Ang):
   XX=            -87.9922   YY=            -98.6372   ZZ=           -108.4117
   XY=              1.9271   XZ=             -1.9526   YZ=             -0.7897

 Normal termination of Gaussian 16 at Sun Oct 17 00:17:36 2021.
