 Gaussian 16, Revision C.01,
 Gaussian 16:  ES64L-G16RevC.01  3-Jul-2019

 -------------------------------------
 # opt=modredundant b3lyp/6-311+g(d,p)
 -------------------------------------

 -------------
 pBTTT_-90.pdb
 -------------
 Symbolic Z-matrix:
 Charge =  0 Multiplicity = 1

 SCF Done:  E(RB3LYP) =  -1618.67394371     A.U. after   17 cycles
 SCF Done:  E(RB3LYP) =  -1618.70424168     A.U. after   15 cycles
 SCF Done:  E(RB3LYP) =  -1618.71262193     A.U. after   14 cycles
 SCF Done:  E(RB3LYP) =  -1618.71456014     A.U. after   16 cycles
 SCF Done:  E(RB3LYP) =  -1618.71475575     A.U. after   15 cycles
 SCF Done:  E(RB3LYP) =  -1618.71532576     A.U. after   13 cycles
 SCF Done:  E(RB3LYP) =  -1618.71526407     A.U. after   14 cycles
 SCF Done:  E(RB3LYP) =  -1618.71534028     A.U. after   14 cycles
 SCF Done:  E(RB3LYP) =  -1618.71537277     A.U. after   12 cycles
 SCF Done:  E(RB3LYP) =  -1618.71537565     A.U. after   11 cycles
 SCF Done:  E(RB3LYP) =  -1618.71545035     A.U. after   12 cycles
 SCF Done:  E(RB3LYP) =  -1618.71545054     A.U. after   11 cycles
 SCF Done:  E(RB3LYP) =  -1618.70587931     A.U. after   16 cycles
 SCF Done:  E(RB3LYP) =  -1618.71575461     A.U. after   13 cycles
 SCF Done:  E(RB3LYP) =  -1618.71595750     A.U. after   13 cycles
 SCF Done:  E(RB3LYP) =  -1618.71609003     A.U. after   13 cycles
 SCF Done:  E(RB3LYP) =  -1618.71588908     A.U. after   13 cycles
 SCF Done:  E(RB3LYP) =  -1618.71624960     A.U. after   14 cycles
 SCF Done:  E(RB3LYP) =  -1618.71625532     A.U. after   12 cycles
 SCF Done:  E(RB3LYP) =  -1618.71625540     A.U. after   10 cycles
 Optimization completed.
    -- Stationary point found.

                         Standard orientation:
 ---------------------------------------------------------------------
 Center     Atomic      Atomic             Coordinates (Angstroms)
 Number     Number       Type             X           Y           Z
 ---------------------------------------------------------------------
      1          6           0        3.986477    0.610634   -0.194354
      2          6           0        2.616756    1.019453   -0.114179
      3          6           0        1.756268   -0.054580   -0.092251
      4          6           0        2.188943    2.459865   -0.060994
      5          6           0        4.151374   -0.742835   -0.226755
      6          1           0        4.813269    1.309385   -0.227622
      7         16           0        2.636584   -1.572279   -0.161845
      8          1           0        5.072523   -1.302357   -0.288930
      9          6           0        0.293416   -0.051511   -0.017008
     10         16           0       -0.517381   -0.081303    1.559063
     11          6           0       -2.081935   -0.059128    0.795739
     12          6           0       -1.952073   -0.033825   -0.587136
     13          6           0       -0.607620   -0.032334   -1.049226
     14          1           0       -0.303269   -0.018364   -2.086787
     15         16           0       -3.518706   -0.007358   -1.352863
     16          6           0       -4.307066   -0.030620    0.207772
     17          6           0       -3.431052   -0.056689    1.254096
     18          1           0       -5.385582   -0.024716    0.249898
     19          1           0       -3.737033   -0.074637    2.290822
     20          1           0        2.562353    3.010413   -0.930076
     21          1           0        2.586357    2.953265    0.831697
     22          1           0        1.102512    2.551474   -0.042889
 ---------------------------------------------------------------------

 The electronic state is 1-A.
 Alpha  occ. eigenvalues --  -88.88476 -88.88223 -88.87865 -10.22145 -10.21172
 Alpha  occ. eigenvalues --  -10.21169 -10.21102 -10.21099 -10.20458 -10.19400
 Alpha  occ. eigenvalues --  -10.19372 -10.19258 -10.17995 -10.17353  -7.97050
 Alpha  occ. eigenvalues --   -7.96792  -7.96476  -5.93362  -5.93107  -5.92997
 Alpha  occ. eigenvalues --   -5.92765  -5.92743  -5.92600  -5.92390  -5.92332
 Alpha  occ. eigenvalues --   -5.92072  -0.91628  -0.89093  -0.84899  -0.77564
 Alpha  occ. eigenvalues --   -0.77105  -0.75526  -0.71418  -0.70536  -0.67861
 Alpha  occ. eigenvalues --   -0.61296  -0.57507  -0.56669  -0.54216  -0.52059
 Alpha  occ. eigenvalues --   -0.49914  -0.49678  -0.44564  -0.43650  -0.43586
 Alpha  occ. eigenvalues --   -0.42123  -0.41426  -0.39912  -0.39475  -0.38997
 Alpha  occ. eigenvalues --   -0.37657  -0.37311  -0.36539  -0.34899  -0.34264
 Alpha  occ. eigenvalues --   -0.33629  -0.29074  -0.25389  -0.24177  -0.23859
 Alpha  occ. eigenvalues --   -0.22614
 Alpha virt. eigenvalues --   -0.04563  -0.03165  -0.00552  -0.00311   0.00053
 Alpha virt. eigenvalues --    0.00501   0.00756   0.01675   0.01766   0.02651
 Alpha virt. eigenvalues --    0.03035   0.03131   0.03580   0.03990   0.04481

 Mulliken charges:
               1
     1  C   -0.029196
     2  C   -0.229764
     3  C    0.261365
     4  C   -0.651491
     5  C   -0.115232
     6  H    0.127102
     7  S   -0.226165
     8  H    0.159929
     9  C    0.330910
    10  S   -0.552611
    11  C    0.141282
    12  C   -0.566429
    13  C    0.565507
    14  H    0.136298
    15  S   -0.388213
    16  C   -0.228581
    17  C    0.477937
    18  H    0.167480
    19  H    0.135632
    20  H    0.154309
    21  H    0.159229
    22  H    0.170701
 Sum of Mulliken charges =  -0.00000

 Dipole moment (field-independent basis, Debye):
    X=              0.2330    Y=              0.9622    Z=             -0.0359  Tot=              0.9907
 Quadrupole moment (field-independent basis, Debye-Ang):
   XX=            -88.2910   YY=           -104.3498   ZZ=           -102.5806
   XY=              1.7403   XZ=             -3.7850   YZ=             -0.0917

 Normal termination of Gaussian 16 at Sun Oct 17 00:10:20 2021.
