 Gaussian 16, Revision C.01,
 Gaussian 16:  ES64L-G16RevC.01  3-Jul-2019

 -------------------------------------
 # opt=modredundant b3lyp/6-311+g(d,p)
 -------------------------------------

 -------------
 pBTTT_-45.pdb
 -------------
 Symbolic Z-matrix:
 Charge =  0 Multiplicity = 1

 SCF Done:  E(RB3LYP) =  -1618.67749684     A.U. after   16 cycles
 SCF Done:  E(RB3LYP) =  -1618.70666551     A.U. after   14 cycles
 SCF Done:  E(RB3LYP) =  -1618.71440604     A.U. after   15 cycles
 SCF Done:  E(RB3LYP) =  -1618.71613634     A.U. after   14 cycles
 SCF Done:  E(RB3LYP) =  -1618.71627904     A.U. after   14 cycles
 SCF Done:  E(RB3LYP) =  -1618.71684475     A.U. after   13 cycles
 SCF Done:  E(RB3LYP) =  -1618.71686975     A.U. after   13 cycles
 SCF Done:  E(RB3LYP) =  -1618.71699041     A.U. after   12 cycles
 SCF Done:  E(RB3LYP) =  -1618.71706415     A.U. after   12 cycles
 SCF Done:  E(RB3LYP) =  -1618.71715445     A.U. after   12 cycles
 SCF Done:  E(RB3LYP) =  -1618.71722365     A.U. after   12 cycles
 SCF Done:  E(RB3LYP) =  -1618.71726699     A.U. after   12 cycles
 SCF Done:  E(RB3LYP) =  -1618.71726969     A.U. after   11 cycles
 SCF Done:  E(RB3LYP) =  -1618.71727006     A.U. after    9 cycles
 Optimization completed.
    -- Stationary point found.

                         Standard orientation:
 ---------------------------------------------------------------------
 Center     Atomic      Atomic             Coordinates (Angstroms)
 Number     Number       Type             X           Y           Z
 ---------------------------------------------------------------------
      1          6           0       -4.031403    0.281052    0.240037
      2          6           0       -2.709485    0.807383    0.380628
      3          6           0       -1.745106   -0.115542    0.025418
      4          6           0       -2.447924    2.199981    0.890176
      5          6           0       -4.069808   -1.006712   -0.208429
      6          1           0       -4.920454    0.849405    0.483763
      7         16           0       -2.481776   -1.623161   -0.495636
      8          1           0       -4.933516   -1.629640   -0.384130
      9          6           0       -0.293177   -0.015066    0.023304
     10         16           0        0.521181    1.419632   -0.627071
     11          6           0        2.085829    0.715769   -0.328507
     12          6           0        1.954521   -0.554074    0.218686
     13          6           0        0.612855   -0.970234    0.420284
     14          1           0        0.314325   -1.915395    0.852425
     15         16           0        3.521269   -1.253832    0.530048
     16          6           0        4.310361    0.181477   -0.083597
     17          6           0        3.433596    1.141809   -0.499673
     18          1           0        5.388832    0.220019   -0.100449
     19          1           0        3.739523    2.094511   -0.908999
     20          1           0       -3.218679    2.491758    1.607834
     21          1           0       -2.464060    2.934995    0.078274
     22          1           0       -1.478320    2.277075    1.383877
 ---------------------------------------------------------------------

 The electronic state is 1-A.
 Alpha  occ. eigenvalues --  -88.88440 -88.88348 -88.88002 -10.22415 -10.21492
 Alpha  occ. eigenvalues --  -10.21174 -10.21118 -10.21048 -10.20458 -10.19372
 Alpha  occ. eigenvalues --  -10.19292 -10.19248 -10.18098 -10.17491  -7.97013
 Alpha  occ. eigenvalues --   -7.96925  -7.96619  -5.93326  -5.93245  -5.92961
 Alpha  occ. eigenvalues --   -5.92913  -5.92881  -5.92562  -5.92536  -5.92452
 Alpha  occ. eigenvalues --   -5.92207  -0.91688  -0.89210  -0.84937  -0.77667
 Alpha  occ. eigenvalues --   -0.77249  -0.75685  -0.71442  -0.70480  -0.68055
 Alpha  occ. eigenvalues --   -0.61423  -0.57775  -0.56907  -0.53700  -0.52250
 Alpha  occ. eigenvalues --   -0.50043  -0.49724  -0.44525  -0.43870  -0.43542
 Alpha  occ. eigenvalues --   -0.42063  -0.41525  -0.40070  -0.39484  -0.39009
 Alpha  occ. eigenvalues --   -0.37845  -0.37535  -0.36710  -0.34862  -0.34234
 Alpha  occ. eigenvalues --   -0.33902  -0.29173  -0.26024  -0.25356  -0.23795
 Alpha  occ. eigenvalues --   -0.21130
 Alpha virt. eigenvalues --   -0.05696  -0.01949  -0.00603  -0.00434  -0.00003
 Alpha virt. eigenvalues --    0.00497   0.01000   0.01475   0.01966   0.02574
 Alpha virt. eigenvalues --    0.03064   0.03453   0.03895   0.04091   0.04688

 Mulliken charges:
               1
     1  C   -0.017082
     2  C   -0.286903
     3  C    0.465607
     4  C   -0.845186
     5  C   -0.107918
     6  H    0.125428
     7  S   -0.358510
     8  H    0.160191
     9  C    0.615545
    10  S   -0.560671
    11  C    0.285663
    12  C   -0.609110
    13  C    0.675909
    14  H    0.143411
    15  S   -0.392802
    16  C   -0.215797
    17  C    0.142557
    18  H    0.167309
    19  H    0.135251
    20  H    0.143302
    21  H    0.172506
    22  H    0.161302
 Sum of Mulliken charges =  -0.00000

 Dipole moment (field-independent basis, Debye):
    X=             -0.3696    Y=              0.8490    Z=              0.3489  Tot=              0.9895
 Quadrupole moment (field-independent basis, Debye-Ang):
   XX=            -88.0288   YY=            -98.9740   ZZ=           -108.0475
   XY=              1.9089   XZ=             -2.1655   YZ=             -0.8694

 Normal termination of Gaussian 16 at Sun Oct 17 00:14:27 2021.
