 Gaussian 16, Revision C.01,
 Gaussian 16:  ES64L-G16RevC.01  3-Jul-2019

 -------------------------------------
 # opt=modredundant b3lyp/6-311+g(d,p)
 -------------------------------------

 --------------
 pBTTT_-140.pdb
 --------------
 Symbolic Z-matrix:
 Charge =  0 Multiplicity = 1

 SCF Done:  E(RB3LYP) =  -1618.67581507     A.U. after   17 cycles
 SCF Done:  E(RB3LYP) =  -1618.70516021     A.U. after   14 cycles
 SCF Done:  E(RB3LYP) =  -1618.71350301     A.U. after   14 cycles
 SCF Done:  E(RB3LYP) =  -1618.71547290     A.U. after   14 cycles
 SCF Done:  E(RB3LYP) =  -1618.71603735     A.U. after   16 cycles
 SCF Done:  E(RB3LYP) =  -1618.71670145     A.U. after   13 cycles
 SCF Done:  E(RB3LYP) =  -1618.71675509     A.U. after   13 cycles
 SCF Done:  E(RB3LYP) =  -1618.71707154     A.U. after   14 cycles
 SCF Done:  E(RB3LYP) =  -1618.71725848     A.U. after   13 cycles
 SCF Done:  E(RB3LYP) =  -1618.71737189     A.U. after   13 cycles
 SCF Done:  E(RB3LYP) =  -1618.71738776     A.U. after   12 cycles
 SCF Done:  E(RB3LYP) =  -1618.71738991     A.U. after   11 cycles
 SCF Done:  E(RB3LYP) =  -1618.71739101     A.U. after   10 cycles
 SCF Done:  E(RB3LYP) =  -1618.71739120     A.U. after   10 cycles
 SCF Done:  E(RB3LYP) =  -1618.71739120     A.U. after    8 cycles
 Optimization completed.
    -- Stationary point found.

                         Standard orientation:
 ---------------------------------------------------------------------
 Center     Atomic      Atomic             Coordinates (Angstroms)
 Number     Number       Type             X           Y           Z
 ---------------------------------------------------------------------
      1          6           0        3.956039    0.774258    0.101470
      2          6           0        2.574337    1.098970    0.271702
      3          6           0        1.750001    0.035363   -0.043411
      4          6           0        2.112869    2.441280    0.769900
      5          6           0        4.174539   -0.502659   -0.325301
      6          1           0        4.756214    1.473863    0.309090
      7         16           0        2.690700   -1.358477   -0.553469
      8          1           0        5.116045   -0.994401   -0.516325
      9          6           0        0.298717   -0.032178   -0.016350
     10         16           0       -0.515864   -1.492536    0.576196
     11          6           0       -2.079928   -0.785356    0.281318
     12          6           0       -1.948237    0.502004   -0.222660
     13          6           0       -0.605872    0.929421   -0.399778
     14          1           0       -0.310832    1.879334   -0.821475
     15         16           0       -3.514826    1.209510   -0.517980
     16          6           0       -4.304450   -0.246047    0.045678
     17          6           0       -3.427636   -1.217218    0.435796
     18          1           0       -5.382873   -0.288236    0.052167
     19          1           0       -3.733526   -2.183604    0.811700
     20          1           0        2.840498    2.859771    1.469658
     21          1           0        1.150010    2.370375    1.278971
     22          1           0        2.002036    3.159909   -0.049908
 ---------------------------------------------------------------------

 The electronic state is 1-A.
 Alpha  occ. eigenvalues --  -88.88465 -88.88289 -88.88032 -10.22429 -10.21530
 Alpha  occ. eigenvalues --  -10.21187 -10.21116 -10.21051 -10.20509 -10.19366
 Alpha  occ. eigenvalues --  -10.19337 -10.19325 -10.18150 -10.17652  -7.97039
 Alpha  occ. eigenvalues --   -7.96866  -7.96651  -5.93351  -5.93186  -5.92987
 Alpha  occ. eigenvalues --   -5.92945  -5.92824  -5.92588  -5.92568  -5.92392
 Alpha  occ. eigenvalues --   -5.92239  -0.91698  -0.89252  -0.84943  -0.77957
 Alpha  occ. eigenvalues --   -0.76944  -0.75829  -0.71450  -0.70558  -0.68103
 Alpha  occ. eigenvalues --   -0.61461  -0.57497  -0.57124  -0.54176  -0.52092
 Alpha  occ. eigenvalues --   -0.50025  -0.49744  -0.44601  -0.43825  -0.43644
 Alpha  occ. eigenvalues --   -0.42013  -0.41545  -0.40122  -0.39704  -0.38996
 Alpha  occ. eigenvalues --   -0.37835  -0.37714  -0.36472  -0.35011  -0.34263
 Alpha  occ. eigenvalues --   -0.33933  -0.29196  -0.26141  -0.25413  -0.23791
 Alpha  occ. eigenvalues --   -0.21069
 Alpha virt. eigenvalues --   -0.05734  -0.02139  -0.00705  -0.00440   0.00281
 Alpha virt. eigenvalues --    0.00694   0.00923   0.01503   0.02001   0.02771
 Alpha virt. eigenvalues --    0.02945   0.03349   0.03829   0.04193   0.04530

 Mulliken charges:
               1
     1  C    0.063268
     2  C   -0.087003
     3  C    0.578389
     4  C   -1.006383
     5  C   -0.099241
     6  H    0.125221
     7  S   -0.401498
     8  H    0.160015
     9  C    0.500484
    10  S   -0.579039
    11  C    0.359299
    12  C   -0.224877
    13  C    0.349356
    14  H    0.135932
    15  S   -0.400294
    16  C   -0.167884
    17  C   -0.084608
    18  H    0.167498
    19  H    0.135751
    20  H    0.144503
    21  H    0.164067
    22  H    0.167042
 Sum of Mulliken charges =  -0.00000

 Dipole moment (field-independent basis, Debye):
    X=              0.2832    Y=              0.8704    Z=              0.2681  Tot=              0.9538
 Quadrupole moment (field-independent basis, Debye-Ang):
   XX=            -88.2889   YY=            -98.6627   ZZ=           -108.3033
   XY=              4.9571   XZ=             -0.8753   YZ=             -0.8156

 Normal termination of Gaussian 16 at Sat Oct 16 23:20:48 2021.
