 Gaussian 16, Revision C.01,
 Gaussian 16:  ES64L-G16RevC.01  3-Jul-2019

 -------------------------------------
 # opt=modredundant b3lyp/6-311+g(d,p)
 -------------------------------------

 --------------
 pBTTT_-160.pdb
 --------------
 Symbolic Z-matrix:
 Charge =  0 Multiplicity = 1

 SCF Done:  E(RB3LYP) =  -1618.67693504     A.U. after   17 cycles
 SCF Done:  E(RB3LYP) =  -1618.70531773     A.U. after   15 cycles
 SCF Done:  E(RB3LYP) =  -1618.71307001     A.U. after   15 cycles
 SCF Done:  E(RB3LYP) =  -1618.71517348     A.U. after   14 cycles
 SCF Done:  E(RB3LYP) =  -1618.71574460     A.U. after   12 cycles
 SCF Done:  E(RB3LYP) =  -1618.71621904     A.U. after   12 cycles
 SCF Done:  E(RB3LYP) =  -1618.71633060     A.U. after   12 cycles
 SCF Done:  E(RB3LYP) =  -1618.71637403     A.U. after   12 cycles
 SCF Done:  E(RB3LYP) =  -1618.71640253     A.U. after   11 cycles
 SCF Done:  E(RB3LYP) =  -1618.71642133     A.U. after   11 cycles
 SCF Done:  E(RB3LYP) =  -1618.71642893     A.U. after   11 cycles
 SCF Done:  E(RB3LYP) =  -1618.71643021     A.U. after   10 cycles
 SCF Done:  E(RB3LYP) =  -1618.71643067     A.U. after    9 cycles
 Optimization completed.
    -- Stationary point found.

                         Standard orientation:
 ---------------------------------------------------------------------
 Center     Atomic      Atomic             Coordinates (Angstroms)
 Number     Number       Type             X           Y           Z
 ---------------------------------------------------------------------
      1          6           0        3.960138    0.786882    0.016319
      2          6           0        2.583162    1.138591    0.154493
      3          6           0        1.748429    0.042478    0.009227
      4          6           0        2.141474    2.543406    0.461088
      5          6           0        4.172320   -0.537479   -0.231478
      6          1           0        4.763104    1.507002    0.112885
      7         16           0        2.683946   -1.409195   -0.320677
      8          1           0        5.109512   -1.055767   -0.363408
      9          6           0        0.298889   -0.018458    0.034566
     10         16           0       -0.517614   -1.562950    0.354389
     11          6           0       -2.082496   -0.824067    0.161321
     12          6           0       -1.952080    0.529311   -0.117735
     13          6           0       -0.612092    0.988744   -0.198638
     14          1           0       -0.329750    1.997945   -0.454722
     15         16           0       -3.519568    1.270468   -0.308457
     16          6           0       -4.306987   -0.261971   -0.005610
     17          6           0       -3.428401   -1.281224    0.227490
     18          1           0       -5.385086   -0.309337   -0.020261
     19          1           0       -3.732530   -2.298175    0.432568
     20          1           0        2.965553    3.114367    0.893941
     21          1           0        1.309625    2.558539    1.169482
     22          1           0        1.817206    3.074996   -0.440825
 ---------------------------------------------------------------------

 The electronic state is 1-A.
 Alpha  occ. eigenvalues --  -88.88463 -88.88280 -88.88095 -10.22628 -10.21732
 Alpha  occ. eigenvalues --  -10.21187 -10.21120 -10.21045 -10.20525 -10.19390
 Alpha  occ. eigenvalues --  -10.19375 -10.19289 -10.18207 -10.17891  -7.97038
 Alpha  occ. eigenvalues --   -7.96867  -7.96723  -5.93350  -5.93191  -5.93020
 Alpha  occ. eigenvalues --   -5.92986  -5.92828  -5.92641  -5.92586  -5.92384
 Alpha  occ. eigenvalues --   -5.92305  -0.91729  -0.89327  -0.84954  -0.78125
 Alpha  occ. eigenvalues --   -0.76936  -0.75951  -0.71448  -0.70574  -0.68271
 Alpha  occ. eigenvalues --   -0.61531  -0.57542  -0.57328  -0.54105  -0.52191
 Alpha  occ. eigenvalues --   -0.50091  -0.49782  -0.44601  -0.43898  -0.43764
 Alpha  occ. eigenvalues --   -0.41977  -0.41679  -0.40321  -0.39754  -0.38901
 Alpha  occ. eigenvalues --   -0.38046  -0.37921  -0.36398  -0.35128  -0.34355
 Alpha  occ. eigenvalues --   -0.33817  -0.29298  -0.26601  -0.25538  -0.23779
 Alpha  occ. eigenvalues --   -0.20633
 Alpha virt. eigenvalues --   -0.06169  -0.01866  -0.00976  -0.00487   0.00318
 Alpha virt. eigenvalues --    0.00741   0.01165   0.01482   0.02083   0.02740
 Alpha virt. eigenvalues --    0.03125   0.03470   0.03813   0.04316   0.04679

 Mulliken charges:
               1
     1  C    0.083931
     2  C    0.488447
     3  C    0.462856
     4  C   -1.098518
     5  C   -0.070584
     6  H    0.121863
     7  S   -0.518626
     8  H    0.159268
     9  C    0.278040
    10  S   -0.531832
    11  C    0.441977
    12  C    0.176489
    13  C   -0.080093
    14  H    0.136849
    15  S   -0.407459
    16  C   -0.110655
    17  C   -0.308289
    18  H    0.167144
    19  H    0.135471
    20  H    0.145963
    21  H    0.160693
    22  H    0.167066
 Sum of Mulliken charges =  -0.00000

 Dipole moment (field-independent basis, Debye):
    X=              0.3264    Y=              0.8855    Z=              0.0892  Tot=              0.9480
 Quadrupole moment (field-independent basis, Debye-Ang):
   XX=            -88.0990   YY=            -97.5712   ZZ=           -109.4339
   XY=              5.2270   XZ=             -0.5261   YZ=             -0.3727

 Normal termination of Gaussian 16 at Sat Oct 16 22:52:58 2021.
