 Gaussian 16, Revision C.01,
 Gaussian 16:  ES64L-G16RevC.01  3-Jul-2019

 -------------------------------------
 # opt=modredundant b3lyp/6-311+g(d,p)
 -------------------------------------

 ------------
 pBTTT_15.pdb
 ------------
 Symbolic Z-matrix:
 Charge =  0 Multiplicity = 1

 SCF Done:  E(RB3LYP) =  -1618.67752988     A.U. after   17 cycles
 SCF Done:  E(RB3LYP) =  -1618.70598577     A.U. after   15 cycles
 SCF Done:  E(RB3LYP) =  -1618.71358686     A.U. after   14 cycles
 SCF Done:  E(RB3LYP) =  -1618.71546402     A.U. after   14 cycles
 SCF Done:  E(RB3LYP) =  -1618.71589257     A.U. after   14 cycles
 SCF Done:  E(RB3LYP) =  -1618.71627587     A.U. after   12 cycles
 SCF Done:  E(RB3LYP) =  -1618.71633605     A.U. after   12 cycles
 SCF Done:  E(RB3LYP) =  -1618.71634110     A.U. after   12 cycles
 SCF Done:  E(RB3LYP) =  -1618.71636555     A.U. after   11 cycles
 SCF Done:  E(RB3LYP) =  -1618.71638227     A.U. after   11 cycles
 SCF Done:  E(RB3LYP) =  -1618.71639191     A.U. after   11 cycles
 SCF Done:  E(RB3LYP) =  -1618.71639398     A.U. after   10 cycles
 SCF Done:  E(RB3LYP) =  -1618.71639459     A.U. after    9 cycles
 SCF Done:  E(RB3LYP) =  -1618.71639467     A.U. after    9 cycles
 Optimization completed.
    -- Stationary point found.

                         Standard orientation:
 ---------------------------------------------------------------------
 Center     Atomic      Atomic             Coordinates (Angstroms)
 Number     Number       Type             X           Y           Z
 ---------------------------------------------------------------------
      1          6           0        4.041662    0.270459    0.083603
      2          6           0        2.730926    0.837203    0.135664
      3          6           0        1.741375   -0.125135    0.016325
      4          6           0        2.515788    2.316624    0.316479
      5          6           0        4.056654   -1.082804   -0.077411
      6          1           0        4.941285    0.866613    0.171194
      7         16           0        2.455072   -1.721673   -0.184313
      8          1           0        4.906743   -1.744495   -0.140077
      9          6           0        0.294285   -0.015125    0.011382
     10         16           0       -0.529178    1.542794   -0.216734
     11          6           0       -2.090959    0.780790   -0.119322
     12          6           0       -1.957216   -0.587352    0.074679
     13          6           0       -0.617349   -1.039342    0.154711
     14          1           0       -0.326706   -2.067488    0.320619
     15         16           0       -3.523157   -1.347126    0.187683
     16          6           0       -4.314563    0.198488   -0.029624
     17          6           0       -3.438339    1.235298   -0.177863
     18          1           0       -5.393032    0.238664   -0.036411
     19          1           0       -3.745098    2.261792   -0.322848
     20          1           0        3.456592    2.802245    0.582642
     21          1           0        1.792696    2.532950    1.106935
     22          1           0        2.150153    2.791193   -0.599954
 ---------------------------------------------------------------------

 The electronic state is 1-A.
 Alpha  occ. eigenvalues --  -88.88425 -88.88394 -88.88057 -10.22664 -10.21818
 Alpha  occ. eigenvalues --  -10.21163 -10.21057 -10.20987 -10.20552 -10.19440
 Alpha  occ. eigenvalues --  -10.19354 -10.19127 -10.18197 -10.17729  -7.97003
 Alpha  occ. eigenvalues --   -7.96967  -7.96688  -5.93326  -5.93281  -5.92990
 Alpha  occ. eigenvalues --   -5.92961  -5.92916  -5.92609  -5.92524  -5.92513
 Alpha  occ. eigenvalues --   -5.92264  -0.91712  -0.89308  -0.84939  -0.77934
 Alpha  occ. eigenvalues --   -0.77270  -0.75793  -0.71428  -0.70481  -0.68272
 Alpha  occ. eigenvalues --   -0.61533  -0.58018  -0.57011  -0.53407  -0.52406
 Alpha  occ. eigenvalues --   -0.50222  -0.49788  -0.44545  -0.43949  -0.43709
 Alpha  occ. eigenvalues --   -0.42025  -0.41667  -0.40265  -0.39522  -0.38826
 Alpha  occ. eigenvalues --   -0.38145  -0.37945  -0.36696  -0.34754  -0.34416
 Alpha  occ. eigenvalues --   -0.33801  -0.29339  -0.26664  -0.25560  -0.23821
 Alpha  occ. eigenvalues --   -0.20436
 Alpha virt. eigenvalues --   -0.06231  -0.01599  -0.00573  -0.00368   0.00204
 Alpha virt. eigenvalues --    0.00459   0.01413   0.01479   0.02078   0.02573
 Alpha virt. eigenvalues --    0.03022   0.03300   0.03772   0.04398   0.04822

 Mulliken charges:
               1
     1  C    0.068645
     2  C    0.276476
     3  C    0.583126
     4  C   -0.979128
     5  C   -0.127990
     6  H    0.120521
     7  S   -0.599954
     8  H    0.159833
     9  C    0.380719
    10  S   -0.616985
    11  C    0.267272
    12  C    0.212159
    13  C    0.044289
    14  H    0.138436
    15  S   -0.402578
    16  C   -0.140026
    17  C   -0.174432
    18  H    0.166952
    19  H    0.133831
    20  H    0.144327
    21  H    0.167638
    22  H    0.176869
 Sum of Mulliken charges =  -0.00000

 Dipole moment (field-independent basis, Debye):
    X=              0.5053    Y=              0.9320    Z=              0.1430  Tot=              1.0698
 Quadrupole moment (field-independent basis, Debye-Ang):
   XX=            -87.7553   YY=            -97.4346   ZZ=           -109.7590
   XY=             -1.8898   XZ=              0.7828   YZ=             -0.3149

 Normal termination of Gaussian 16 at Sun Oct 17 00:43:01 2021.
