 Gaussian 16, Revision C.01,
 Gaussian 16:  ES64L-G16RevC.01  3-Jul-2019

 -------------------------------------
 # opt=modredundant b3lyp/6-311+g(d,p)
 -------------------------------------

 --------------
 pBTTT_-150.pdb
 --------------
 Symbolic Z-matrix:
 Charge =  0 Multiplicity = 1

 SCF Done:  E(RB3LYP) =  -1618.67647612     A.U. after   17 cycles
 SCF Done:  E(RB3LYP) =  -1618.70530173     A.U. after   14 cycles
 SCF Done:  E(RB3LYP) =  -1618.71340809     A.U. after   14 cycles
 SCF Done:  E(RB3LYP) =  -1618.71547355     A.U. after   15 cycles
 SCF Done:  E(RB3LYP) =  -1618.71605964     A.U. after   13 cycles
 SCF Done:  E(RB3LYP) =  -1618.71668725     A.U. after   12 cycles
 SCF Done:  E(RB3LYP) =  -1618.71679465     A.U. after   12 cycles
 SCF Done:  E(RB3LYP) =  -1618.71691776     A.U. after   12 cycles
 SCF Done:  E(RB3LYP) =  -1618.71698820     A.U. after   11 cycles
 SCF Done:  E(RB3LYP) =  -1618.71704789     A.U. after   12 cycles
 SCF Done:  E(RB3LYP) =  -1618.71705619     A.U. after   10 cycles
 SCF Done:  E(RB3LYP) =  -1618.71705753     A.U. after   10 cycles
 SCF Done:  E(RB3LYP) =  -1618.71705796     A.U. after    9 cycles
 Optimization completed.
    -- Stationary point found.

                         Standard orientation:
 ---------------------------------------------------------------------
 Center     Atomic      Atomic             Coordinates (Angstroms)
 Number     Number       Type             X           Y           Z
 ---------------------------------------------------------------------
      1          6           0        3.958015    0.782283    0.055692
      2          6           0        2.579214    1.120522    0.215685
      3          6           0        1.749117    0.037758   -0.014578
      4          6           0        2.128040    2.495942    0.625179
      5          6           0        4.172143   -0.520849   -0.285736
      6          1           0        4.760275    1.493633    0.207706
      7         16           0        2.685457   -1.386959   -0.442346
      8          1           0        5.111110   -1.026418   -0.450947
      9          6           0        0.299099   -0.024756    0.012848
     10         16           0       -0.517784   -1.532155    0.471941
     11          6           0       -2.081468   -0.806868    0.223273
     12          6           0       -1.949052    0.517782   -0.171137
     13          6           0       -0.607355    0.962584   -0.299731
     14          1           0       -0.316960    1.943931   -0.643800
     15         16           0       -3.515304    1.244524   -0.418223
     16          6           0       -4.305416   -0.254047    0.017686
     17          6           0       -3.428779   -1.252437    0.332947
     18          1           0       -5.383715   -0.299071    0.011885
     19          1           0       -3.734890   -2.247277    0.625091
     20          1           0        2.908357    2.996243    1.203266
     21          1           0        1.223470    2.456472    1.235705
     22          1           0        1.913086    3.128442   -0.243630
 ---------------------------------------------------------------------

 The electronic state is 1-A.
 Alpha  occ. eigenvalues --  -88.88466 -88.88290 -88.88066 -10.22527 -10.21627
 Alpha  occ. eigenvalues --  -10.21193 -10.21121 -10.21049 -10.20514 -10.19372
 Alpha  occ. eigenvalues --  -10.19356 -10.19311 -10.18180 -10.17767  -7.97041
 Alpha  occ. eigenvalues --   -7.96871  -7.96689  -5.93353  -5.93193  -5.92989
 Alpha  occ. eigenvalues --   -5.92985  -5.92831  -5.92607  -5.92589  -5.92393
 Alpha  occ. eigenvalues --   -5.92274  -0.91717  -0.89290  -0.84953  -0.78043
 Alpha  occ. eigenvalues --   -0.76938  -0.75894  -0.71453  -0.70566  -0.68184
 Alpha  occ. eigenvalues --   -0.61499  -0.57519  -0.57232  -0.54140  -0.52135
 Alpha  occ. eigenvalues --   -0.50056  -0.49766  -0.44602  -0.43866  -0.43695
 Alpha  occ. eigenvalues --   -0.41995  -0.41606  -0.40219  -0.39732  -0.38960
 Alpha  occ. eigenvalues --   -0.37917  -0.37836  -0.36439  -0.35070  -0.34295
 Alpha  occ. eigenvalues --   -0.33908  -0.29249  -0.26392  -0.25473  -0.23797
 Alpha  occ. eigenvalues --   -0.20829
 Alpha virt. eigenvalues --   -0.05966  -0.01981  -0.00833  -0.00464   0.00304
 Alpha virt. eigenvalues --    0.00729   0.01041   0.01495   0.02056   0.02754
 Alpha virt. eigenvalues --    0.03028   0.03411   0.03813   0.04279   0.04614

 Mulliken charges:
               1
     1  C    0.023996
     2  C    0.460371
     3  C    0.408191
     4  C   -1.059556
     5  C   -0.054057
     6  H    0.123280
     7  S   -0.470459
     8  H    0.159669
     9  C    0.388854
    10  S   -0.521279
    11  C    0.445070
    12  C    0.152377
    13  C   -0.155725
    14  H    0.138099
    15  S   -0.404713
    16  C   -0.113977
    17  C   -0.296625
    18  H    0.167258
    19  H    0.135779
    20  H    0.144944
    21  H    0.161661
    22  H    0.166843
 Sum of Mulliken charges =  -0.00000

 Dipole moment (field-independent basis, Debye):
    X=              0.2998    Y=              0.8768    Z=              0.1753  Tot=              0.9431
 Quadrupole moment (field-independent basis, Debye-Ang):
   XX=            -88.1967   YY=            -98.0791   ZZ=           -108.9186
   XY=              5.1127   XZ=             -0.7080   YZ=             -0.5969

 Normal termination of Gaussian 16 at Sat Oct 16 23:05:21 2021.
