 Gaussian 16, Revision C.01,
 Gaussian 16:  ES64L-G16RevC.01  3-Jul-2019

 -------------------------------------
 # opt=modredundant b3lyp/6-311+g(d,p)
 -------------------------------------

 --------------
 pBTTT_-175.pdb
 --------------
 Symbolic Z-matrix:
 Charge =  0 Multiplicity = 1

 SCF Done:  E(RB3LYP) =  -1618.67724741     A.U. after   16 cycles
 SCF Done:  E(RB3LYP) =  -1618.70526263     A.U. after   14 cycles
 SCF Done:  E(RB3LYP) =  -1618.71266460     A.U. after   14 cycles
 SCF Done:  E(RB3LYP) =  -1618.71459696     A.U. after   13 cycles
 SCF Done:  E(RB3LYP) =  -1618.71506219     A.U. after   12 cycles
 SCF Done:  E(RB3LYP) =  -1618.71525938     A.U. after   12 cycles
 SCF Done:  E(RB3LYP) =  -1618.71536654     A.U. after   12 cycles
 SCF Done:  E(RB3LYP) =  -1618.71537204     A.U. after   11 cycles
 SCF Done:  E(RB3LYP) =  -1618.71537940     A.U. after   10 cycles
 SCF Done:  E(RB3LYP) =  -1618.71538491     A.U. after   10 cycles
 SCF Done:  E(RB3LYP) =  -1618.71538775     A.U. after   10 cycles
 SCF Done:  E(RB3LYP) =  -1618.71538860     A.U. after   10 cycles
 SCF Done:  E(RB3LYP) =  -1618.71538874     A.U. after    8 cycles
 Optimization completed.
    -- Stationary point found.

                         Standard orientation:
 ---------------------------------------------------------------------
 Center     Atomic      Atomic             Coordinates (Angstroms)
 Number     Number       Type             X           Y           Z
 ---------------------------------------------------------------------
      1          6           0        3.963456    0.791544   -0.006008
      2          6           0        2.585232    1.158342    0.043493
      3          6           0        1.747655    0.052320    0.012057
      4          6           0        2.149398    2.594688    0.135641
      5          6           0        4.179478   -0.553087   -0.077352
      6          1           0        4.764745    1.519526    0.015634
      7         16           0        2.691473   -1.428175   -0.092262
      8          1           0        5.117558   -1.084330   -0.120612
      9          6           0        0.297867   -0.013402    0.021077
     10         16           0       -0.513672   -1.592939    0.107872
     11          6           0       -2.083068   -0.842105    0.046297
     12          6           0       -1.959505    0.537478   -0.030878
     13          6           0       -0.622994    1.012003   -0.048627
     14          1           0       -0.355953    2.052906   -0.125361
     15         16           0       -3.531418    1.291618   -0.091328
     16          6           0       -4.310703   -0.272418   -0.010175
     17          6           0       -3.426157   -1.310891    0.059071
     18          1           0       -5.388739   -0.322293   -0.019264
     19          1           0       -3.724677   -2.348431    0.114817
     20          1           0        3.016277    3.244907    0.265625
     21          1           0        1.477666    2.761493    0.983115
     22          1           0        1.627038    2.921301   -0.770053
 ---------------------------------------------------------------------

 The electronic state is 1-A.
 Alpha  occ. eigenvalues --  -88.88454 -88.88262 -88.88132 -10.22754 -10.21870
 Alpha  occ. eigenvalues --  -10.21168 -10.21110 -10.21037 -10.20547 -10.19456
 Alpha  occ. eigenvalues --  -10.19374 -10.19250 -10.18237 -10.18049  -7.97028
 Alpha  occ. eigenvalues --   -7.96854  -7.96767  -5.93341  -5.93181  -5.93065
 Alpha  occ. eigenvalues --   -5.92977  -5.92818  -5.92685  -5.92576  -5.92365
 Alpha  occ. eigenvalues --   -5.92346  -0.91732  -0.89372  -0.84948  -0.78222
 Alpha  occ. eigenvalues --   -0.76936  -0.76010  -0.71431  -0.70586  -0.68383
 Alpha  occ. eigenvalues --   -0.61564  -0.57576  -0.57427  -0.54070  -0.52274
 Alpha  occ. eigenvalues --   -0.50139  -0.49793  -0.44582  -0.43923  -0.43885
 Alpha  occ. eigenvalues --   -0.41956  -0.41782  -0.40447  -0.39793  -0.38768
 Alpha  occ. eigenvalues --   -0.38270  -0.37987  -0.36345  -0.35193  -0.34451
 Alpha  occ. eigenvalues --   -0.33652  -0.29349  -0.26806  -0.25637  -0.23731
 Alpha  occ. eigenvalues --   -0.20441
 Alpha virt. eigenvalues --   -0.06378  -0.01787  -0.01130  -0.00507   0.00319
 Alpha virt. eigenvalues --    0.00746   0.01359   0.01445   0.02090   0.02736
 Alpha virt. eigenvalues --    0.03307   0.03477   0.03844   0.04349   0.04771

 Mulliken charges:
               1
     1  C    0.107276
     2  C    0.366101
     3  C    0.780004
     4  C   -1.118320
     5  C   -0.167915
     6  H    0.119593
     7  S   -0.583606
     8  H    0.158658
     9  C    0.123380
    10  S   -0.603012
    11  C    0.354411
    12  C    0.198272
    13  C    0.086766
    14  H    0.133921
    15  S   -0.407462
    16  C   -0.114903
    17  C   -0.209006
    18  H    0.167008
    19  H    0.134534
    20  H    0.147145
    21  H    0.161466
    22  H    0.165689
 Sum of Mulliken charges =  -0.00000

 Dipole moment (field-independent basis, Debye):
    X=              0.3675    Y=              0.9009    Z=              0.0069  Tot=              0.9731
 Quadrupole moment (field-independent basis, Debye-Ang):
   XX=            -87.9959   YY=            -97.0182   ZZ=           -109.9741
   XY=              5.2917   XZ=             -0.1571   YZ=             -0.0783

 Normal termination of Gaussian 16 at Sat Oct 16 22:24:51 2021.
