 Gaussian 16, Revision C.01,
 Gaussian 16:  ES64L-G16RevC.01  3-Jul-2019

 -------------------------------------
 # opt=modredundant b3lyp/6-311+g(d,p)
 -------------------------------------

 -------------
 pBTTT_-80.pdb
 -------------
 Symbolic Z-matrix:
 Charge =  0 Multiplicity = 1

 SCF Done:  E(RB3LYP) =  -1618.67446252     A.U. after   17 cycles
 SCF Done:  E(RB3LYP) =  -1618.70465265     A.U. after   14 cycles
 SCF Done:  E(RB3LYP) =  -1618.71293042     A.U. after   14 cycles
 SCF Done:  E(RB3LYP) =  -1618.71484901     A.U. after   15 cycles
 SCF Done:  E(RB3LYP) =  -1618.71502346     A.U. after   15 cycles
 SCF Done:  E(RB3LYP) =  -1618.71557987     A.U. after   14 cycles
 SCF Done:  E(RB3LYP) =  -1618.71560631     A.U. after   12 cycles
 SCF Done:  E(RB3LYP) =  -1618.71562483     A.U. after   12 cycles
 SCF Done:  E(RB3LYP) =  -1618.71564054     A.U. after   11 cycles
 SCF Done:  E(RB3LYP) =  -1618.71574510     A.U. after   14 cycles
 SCF Done:  E(RB3LYP) =  -1618.71593798     A.U. after   13 cycles
 SCF Done:  E(RB3LYP) =  -1618.71599782     A.U. after   14 cycles
 SCF Done:  E(RB3LYP) =  -1618.71566484     A.U. after   13 cycles
 SCF Done:  E(RB3LYP) =  -1618.71610596     A.U. after   16 cycles
 SCF Done:  E(RB3LYP) =  -1618.71599405     A.U. after   14 cycles
 SCF Done:  E(RB3LYP) =  -1618.71636970     A.U. after   14 cycles
 SCF Done:  E(RB3LYP) =  -1618.71639940     A.U. after   12 cycles
 SCF Done:  E(RB3LYP) =  -1618.71641123     A.U. after   13 cycles
 SCF Done:  E(RB3LYP) =  -1618.71641280     A.U. after   11 cycles
 SCF Done:  E(RB3LYP) =  -1618.71641290     A.U. after   10 cycles
 Optimization completed.
    -- Stationary point found.

                         Standard orientation:
 ---------------------------------------------------------------------
 Center     Atomic      Atomic             Coordinates (Angstroms)
 Number     Number       Type             X           Y           Z
 ---------------------------------------------------------------------
      1          6           0        4.003299    0.351211   -0.445321
      2          6           0        2.646899    0.776616   -0.613631
      3          6           0        1.754684   -0.098139   -0.035864
      4          6           0        2.263601    2.030932   -1.349373
      5          6           0        4.127759   -0.819345    0.243764
      6          1           0        4.850234    0.902324   -0.835090
      7         16           0        2.588852   -1.446430    0.718303
      8          1           0        5.031430   -1.353024    0.496729
      9          6           0        0.292687   -0.030170    0.000436
     10         16           0       -0.519688    1.020668    1.174501
     11          6           0       -2.083725    0.506715    0.608008
     12          6           0       -1.952360   -0.427421   -0.411832
     13          6           0       -0.607736   -0.735846   -0.754443
     14          1           0       -0.303161   -1.435978   -1.520236
     15         16           0       -3.518137   -0.939161   -0.984192
     16          6           0       -4.308202    0.117933    0.162974
     17          6           0       -3.433231    0.822742    0.937996
     18          1           0       -5.386770    0.147958    0.190910
     19          1           0       -3.740362    1.523851    1.701454
     20          1           0        2.730079    2.058085   -2.338719
     21          1           0        2.596625    2.922347   -0.807910
     22          1           0        1.183447    2.101859   -1.481212
 ---------------------------------------------------------------------

 The electronic state is 1-A.
 Alpha  occ. eigenvalues --  -88.88469 -88.88230 -88.87884 -10.22163 -10.21189
 Alpha  occ. eigenvalues --  -10.21167 -10.21098 -10.21096 -10.20450 -10.19388
 Alpha  occ. eigenvalues --  -10.19370 -10.19247 -10.18003 -10.17359  -7.97043
 Alpha  occ. eigenvalues --   -7.96799  -7.96494  -5.93355  -5.93114  -5.92990
 Alpha  occ. eigenvalues --   -5.92784  -5.92750  -5.92593  -5.92408  -5.92337
 Alpha  occ. eigenvalues --   -5.92090  -0.91630  -0.89102  -0.84900  -0.77528
 Alpha  occ. eigenvalues --   -0.77158  -0.75531  -0.71417  -0.70524  -0.67874
 Alpha  occ. eigenvalues --   -0.61303  -0.57542  -0.56694  -0.54124  -0.52088
 Alpha  occ. eigenvalues --   -0.49923  -0.49677  -0.44546  -0.43702  -0.43552
 Alpha  occ. eigenvalues --   -0.42121  -0.41429  -0.39920  -0.39469  -0.38999
 Alpha  occ. eigenvalues --   -0.37667  -0.37310  -0.36570  -0.34897  -0.34256
 Alpha  occ. eigenvalues --   -0.33645  -0.29076  -0.25410  -0.24391  -0.23834
 Alpha  occ. eigenvalues --   -0.22421
 Alpha virt. eigenvalues --   -0.04709  -0.02991  -0.00568  -0.00346  -0.00005
 Alpha virt. eigenvalues --    0.00495   0.00791   0.01617   0.01835   0.02566
 Alpha virt. eigenvalues --    0.03099   0.03178   0.03626   0.04088   0.04407

 Mulliken charges:
               1
     1  C   -0.077027
     2  C   -0.223446
     3  C    0.075153
     4  C   -0.591799
     5  C   -0.111097
     6  H    0.127106
     7  S   -0.214967
     8  H    0.160172
     9  C    0.491389
    10  S   -0.559074
    11  C    0.181120
    12  C   -0.575314
    13  C    0.578241
    14  H    0.138096
    15  S   -0.380333
    16  C   -0.225072
    17  C    0.423745
    18  H    0.167547
    19  H    0.135546
    20  H    0.151977
    21  H    0.162409
    22  H    0.165629
 Sum of Mulliken charges =  -0.00000

 Dipole moment (field-independent basis, Debye):
    X=              0.2617    Y=              0.7632    Z=             -0.5355  Tot=              0.9683
 Quadrupole moment (field-independent basis, Debye-Ang):
   XX=            -88.2029   YY=           -102.5816   ZZ=           -104.3502
   XY=             -1.1512   XZ=             -3.7327   YZ=              1.1521

 Normal termination of Gaussian 16 at Sun Oct 17 00:18:24 2021.
