 Gaussian 16, Revision C.01,
 Gaussian 16:  ES64L-G16RevC.01  3-Jul-2019

 -------------------------------------
 # opt=modredundant b3lyp/6-311+g(d,p)
 -------------------------------------

 ------------
 pBTTT_30.pdb
 ------------
 Symbolic Z-matrix:
 Charge =  0 Multiplicity = 1

 SCF Done:  E(RB3LYP) =  -1618.67686968     A.U. after   17 cycles
 SCF Done:  E(RB3LYP) =  -1618.70576829     A.U. after   15 cycles
 SCF Done:  E(RB3LYP) =  -1618.71377772     A.U. after   14 cycles
 SCF Done:  E(RB3LYP) =  -1618.71569265     A.U. after   15 cycles
 SCF Done:  E(RB3LYP) =  -1618.71611849     A.U. after   14 cycles
 SCF Done:  E(RB3LYP) =  -1618.71665766     A.U. after   12 cycles
 SCF Done:  E(RB3LYP) =  -1618.71672534     A.U. after   12 cycles
 SCF Done:  E(RB3LYP) =  -1618.71677414     A.U. after   12 cycles
 SCF Done:  E(RB3LYP) =  -1618.71681601     A.U. after   11 cycles
 SCF Done:  E(RB3LYP) =  -1618.71688736     A.U. after   12 cycles
 SCF Done:  E(RB3LYP) =  -1618.71691188     A.U. after   11 cycles
 SCF Done:  E(RB3LYP) =  -1618.71692132     A.U. after   11 cycles
 SCF Done:  E(RB3LYP) =  -1618.71692231     A.U. after    9 cycles
 SCF Done:  E(RB3LYP) =  -1618.71692248     A.U. after    9 cycles
 SCF Done:  E(RB3LYP) =  -1618.71692250     A.U. after    8 cycles
 Optimization completed.
    -- Stationary point found.

                         Standard orientation:
 ---------------------------------------------------------------------
 Center     Atomic      Atomic             Coordinates (Angstroms)
 Number     Number       Type             X           Y           Z
 ---------------------------------------------------------------------
      1          6           0        4.037408    0.271818    0.160964
      2          6           0        2.723455    0.824970    0.261794
      3          6           0        1.742448   -0.121524    0.024688
      4          6           0        2.493184    2.270921    0.614777
      5          6           0        4.059121   -1.055974   -0.149007
      6          1           0        4.934138    0.855195    0.328815
      7         16           0        2.461661   -1.682318   -0.348836
      8          1           0        4.913569   -1.703824   -0.270793
      9          6           0        0.293686   -0.014813    0.020055
     10         16           0       -0.524657    1.495508   -0.425208
     11          6           0       -2.088103    0.755386   -0.227681
     12          6           0       -1.955929   -0.575021    0.147689
     13          6           0       -0.615445   -1.012331    0.294249
     14          1           0       -0.320677   -2.005936    0.602417
     15         16           0       -3.522568   -1.310424    0.363469
     16          6           0       -4.312296    0.193037   -0.057210
     17          6           0       -3.435383    1.199878   -0.343251
     18          1           0       -5.390747    0.232897   -0.069572
     19          1           0       -3.741253    2.198113   -0.623905
     20          1           0        3.368301    2.677002    1.126769
     21          1           0        1.629394    2.400047    1.269724
     22          1           0        2.323430    2.884165   -0.276652
 ---------------------------------------------------------------------

 The electronic state is 1-A.
 Alpha  occ. eigenvalues --  -88.88419 -88.88394 -88.88032 -10.22550 -10.21663
 Alpha  occ. eigenvalues --  -10.21169 -10.21101 -10.21020 -10.20496 -10.19368
 Alpha  occ. eigenvalues --  -10.19360 -10.19180 -10.18148 -10.17610  -7.96993
 Alpha  occ. eigenvalues --   -7.96973  -7.96656  -5.93306  -5.93295  -5.92954
 Alpha  occ. eigenvalues --   -5.92941  -5.92930  -5.92575  -5.92540  -5.92497
 Alpha  occ. eigenvalues --   -5.92238  -0.91708  -0.89262  -0.84945  -0.77805
 Alpha  occ. eigenvalues --   -0.77260  -0.75749  -0.71442  -0.70474  -0.68168
 Alpha  occ. eigenvalues --   -0.61483  -0.57906  -0.56973  -0.53536  -0.52331
 Alpha  occ. eigenvalues --   -0.50131  -0.49760  -0.44532  -0.43914  -0.43612
 Alpha  occ. eigenvalues --   -0.42041  -0.41605  -0.40173  -0.39501  -0.38940
 Alpha  occ. eigenvalues --   -0.37999  -0.37728  -0.36717  -0.34818  -0.34280
 Alpha  occ. eigenvalues --   -0.33919  -0.29257  -0.26406  -0.25469  -0.23807
 Alpha  occ. eigenvalues --   -0.20720
 Alpha virt. eigenvalues --   -0.06021  -0.01720  -0.00577  -0.00409   0.00102
 Alpha virt. eigenvalues --    0.00484   0.01168   0.01471   0.02032   0.02613
 Alpha virt. eigenvalues --    0.03021   0.03410   0.03858   0.04185   0.04795

 Mulliken charges:
               1
     1  C    0.015659
     2  C    0.199715
     3  C    0.559497
     4  C   -0.934503
     5  C   -0.075500
     6  H    0.122247
     7  S   -0.509310
     8  H    0.160062
     9  C    0.462800
    10  S   -0.543588
    11  C    0.381963
    12  C    0.149196
    13  C   -0.129697
    14  H    0.141827
    15  S   -0.404433
    16  C   -0.133382
    17  C   -0.247664
    18  H    0.167097
    19  H    0.134894
    20  H    0.143361
    21  H    0.164387
    22  H    0.175371
 Sum of Mulliken charges =  -0.00000

 Dipole moment (field-independent basis, Debye):
    X=              0.4318    Y=              0.8997    Z=              0.2562  Tot=              1.0303
 Quadrupole moment (field-independent basis, Debye-Ang):
   XX=            -87.9011   YY=            -98.0476   ZZ=           -109.0592
   XY=             -1.9392   XZ=              1.5012   YZ=             -0.6107

 Normal termination of Gaussian 16 at Sun Oct 17 00:55:50 2021.
