 Gaussian 16, Revision C.01,
 Gaussian 16:  ES64L-G16RevC.01  3-Jul-2019

 -------------------------------------
 # opt=modredundant b3lyp/6-311+g(d,p)
 -------------------------------------

 -----------
 pBTTT_5.pdb
 -----------
 Symbolic Z-matrix:
 Charge =  0 Multiplicity = 1

 SCF Done:  E(RB3LYP) =  -1618.67785395     A.U. after   17 cycles
 SCF Done:  E(RB3LYP) =  -1618.70615732     A.U. after   15 cycles
 SCF Done:  E(RB3LYP) =  -1618.71351115     A.U. after   14 cycles
 SCF Done:  E(RB3LYP) =  -1618.71538982     A.U. after   13 cycles
 SCF Done:  E(RB3LYP) =  -1618.71579267     A.U. after   12 cycles
 SCF Done:  E(RB3LYP) =  -1618.71606043     A.U. after   12 cycles
 SCF Done:  E(RB3LYP) =  -1618.71613447     A.U. after   11 cycles
 SCF Done:  E(RB3LYP) =  -1618.71612975     A.U. after   11 cycles
 SCF Done:  E(RB3LYP) =  -1618.71613926     A.U. after   11 cycles
 SCF Done:  E(RB3LYP) =  -1618.71614297     A.U. after    9 cycles
 SCF Done:  E(RB3LYP) =  -1618.71614666     A.U. after   10 cycles
 SCF Done:  E(RB3LYP) =  -1618.71614760     A.U. after    9 cycles
 SCF Done:  E(RB3LYP) =  -1618.71614775     A.U. after    9 cycles
 Optimization completed.
    -- Stationary point found.

                         Standard orientation:
 ---------------------------------------------------------------------
 Center     Atomic      Atomic             Coordinates (Angstroms)
 Number     Number       Type             X           Y           Z
 ---------------------------------------------------------------------
      1          6           0       -4.043236    0.271520   -0.028644
      2          6           0       -2.733006    0.841405   -0.046400
      3          6           0       -1.741232   -0.126150   -0.006139
      4          6           0       -2.521159    2.330818   -0.107707
      5          6           0       -4.057038   -1.089820    0.026219
      6          1           0       -4.943380    0.872459   -0.058651
      7         16           0       -2.454666   -1.734591    0.063389
      8          1           0       -4.906346   -1.755086    0.047442
      9          6           0       -0.294564   -0.015259   -0.003715
     10         16           0        0.531261    1.557598    0.073620
     11          6           0        2.092266    0.789086    0.040878
     12          6           0        1.957761   -0.590945   -0.025198
     13          6           0        0.618028   -1.047960   -0.052978
     14          1           0        0.329307   -2.088340   -0.110785
     15         16           0        3.523213   -1.359139   -0.063973
     16          6           0        4.315548    0.199573    0.009990
     17          6           0        3.439851    1.246147    0.060711
     18          1           0        5.394023    0.239878    0.012127
     19          1           0        3.747313    2.281466    0.109741
     20          1           0       -3.481167    2.842046   -0.199546
     21          1           0       -1.906319    2.623109   -0.963754
     22          1           0       -2.029675    2.712082    0.792775
 ---------------------------------------------------------------------

 The electronic state is 1-A.
 Alpha  occ. eigenvalues --  -88.88437 -88.88383 -88.88068 -10.22707 -10.21880
 Alpha  occ. eigenvalues --  -10.21160 -10.21034 -10.20971 -10.20578 -10.19476
 Alpha  occ. eigenvalues --  -10.19346 -10.19110 -10.18215 -10.17774  -7.97014
 Alpha  occ. eigenvalues --   -7.96957  -7.96703  -5.93338  -5.93270  -5.93005
 Alpha  occ. eigenvalues --   -5.92971  -5.92905  -5.92624  -5.92533  -5.92502
 Alpha  occ. eigenvalues --   -5.92276  -0.91711  -0.89327  -0.84934  -0.77985
 Alpha  occ. eigenvalues --   -0.77275  -0.75808  -0.71420  -0.70488  -0.68311
 Alpha  occ. eigenvalues --   -0.61553  -0.58059  -0.57021  -0.53360  -0.52438
 Alpha  occ. eigenvalues --   -0.50260  -0.49797  -0.44554  -0.43962  -0.43754
 Alpha  occ. eigenvalues --   -0.42022  -0.41684  -0.40299  -0.39531  -0.38762
 Alpha  occ. eigenvalues --   -0.38190  -0.38061  -0.36684  -0.34712  -0.34492
 Alpha  occ. eigenvalues --   -0.33736  -0.29373  -0.26747  -0.25596  -0.23828
 Alpha  occ. eigenvalues --   -0.20342
 Alpha virt. eigenvalues --   -0.06296  -0.01560  -0.00582  -0.00352   0.00234
 Alpha virt. eigenvalues --    0.00447   0.01476   0.01566   0.02077   0.02522
 Alpha virt. eigenvalues --    0.03064   0.03218   0.03726   0.04543   0.04813

 Mulliken charges:
               1
     1  C    0.057974
     2  C    0.255491
     3  C    0.656763
     4  C   -0.968727
     5  C   -0.178680
     6  H    0.120020
     7  S   -0.629223
     8  H    0.160090
     9  C    0.417442
    10  S   -0.684933
    11  C    0.203476
    12  C    0.184639
    13  C    0.134856
    14  H    0.137535
    15  S   -0.398408
    16  C   -0.146945
    17  C   -0.111441
    18  H    0.166910
    19  H    0.133129
    20  H    0.144828
    21  H    0.170402
    22  H    0.174802
 Sum of Mulliken charges =  -0.00000

 Dipole moment (field-independent basis, Debye):
    X=             -0.5372    Y=              0.9401    Z=             -0.0509  Tot=              1.0840
 Quadrupole moment (field-independent basis, Debye-Ang):
   XX=            -87.7019   YY=            -97.2330   ZZ=           -109.9956
   XY=              1.8582   XZ=              0.2645   YZ=              0.1074

 Normal termination of Gaussian 16 at Sun Oct 17 00:38:21 2021.
