 Gaussian 16, Revision C.01,
 Gaussian 16:  ES64L-G16RevC.01  3-Jul-2019

 -------------------------------------
 # opt=modredundant b3lyp/6-311+g(d,p)
 -------------------------------------

 -------------
 pBTTT_-35.pdb
 -------------
 Symbolic Z-matrix:
 Charge =  0 Multiplicity = 1

 SCF Done:  E(RB3LYP) =  -1618.67802602     A.U. after   17 cycles
 SCF Done:  E(RB3LYP) =  -1618.70690204     A.U. after   14 cycles
 SCF Done:  E(RB3LYP) =  -1618.71446866     A.U. after   16 cycles
 SCF Done:  E(RB3LYP) =  -1618.71619626     A.U. after   14 cycles
 SCF Done:  E(RB3LYP) =  -1618.71630821     A.U. after   13 cycles
 SCF Done:  E(RB3LYP) =  -1618.71681076     A.U. after   12 cycles
 SCF Done:  E(RB3LYP) =  -1618.71685248     A.U. after   12 cycles
 SCF Done:  E(RB3LYP) =  -1618.71691674     A.U. after   12 cycles
 SCF Done:  E(RB3LYP) =  -1618.71695813     A.U. after   11 cycles
 SCF Done:  E(RB3LYP) =  -1618.71701354     A.U. after   11 cycles
 SCF Done:  E(RB3LYP) =  -1618.71704877     A.U. after   11 cycles
 SCF Done:  E(RB3LYP) =  -1618.71706561     A.U. after   11 cycles
 SCF Done:  E(RB3LYP) =  -1618.71706673     A.U. after   10 cycles
 SCF Done:  E(RB3LYP) =  -1618.71706685     A.U. after    8 cycles
 Optimization completed.
    -- Stationary point found.

                         Standard orientation:
 ---------------------------------------------------------------------
 Center     Atomic      Atomic             Coordinates (Angstroms)
 Number     Number       Type             X           Y           Z
 ---------------------------------------------------------------------
      1          6           0       -4.035620    0.273929    0.186717
      2          6           0       -2.719595    0.819655    0.302098
      3          6           0       -1.743151   -0.119759    0.025647
      4          6           0       -2.480799    2.249770    0.709577
      5          6           0       -4.061598   -1.042045   -0.170586
      6          1           0       -4.930437    0.852361    0.380170
      7         16           0       -2.466612   -1.664615   -0.399576
      8          1           0       -4.918579   -1.682801   -0.311045
      9          6           0       -0.293493   -0.014782    0.021837
     10         16           0        0.523289    1.473340   -0.493225
     11          6           0        2.087237    0.743770   -0.261860
     12          6           0        1.955450   -0.569026    0.171569
     13          6           0        0.614629   -0.999958    0.337474
     14          1           0        0.318503   -1.978857    0.688463
     15         16           0        3.522206   -1.293704    0.419953
     16          6           0        4.311570    0.189904   -0.066083
     17          6           0        3.434624    1.183059   -0.396169
     18          1           0        5.390025    0.229402   -0.080140
     19          1           0        3.740410    2.167967   -0.720574
     20          1           0       -3.324671    2.620438    1.295925
     21          1           0       -2.375549    2.906350   -0.160741
     22          1           0       -1.577358    2.357689    1.312177
 ---------------------------------------------------------------------

 The electronic state is 1-A.
 Alpha  occ. eigenvalues --  -88.88427 -88.88380 -88.88022 -10.22506 -10.21606
 Alpha  occ. eigenvalues --  -10.21171 -10.21110 -10.21031 -10.20480 -10.19371
 Alpha  occ. eigenvalues --  -10.19335 -10.19202 -10.18130 -10.17568  -7.97001
 Alpha  occ. eigenvalues --   -7.96959  -7.96644  -5.93313  -5.93280  -5.92949
 Alpha  occ. eigenvalues --   -5.92941  -5.92916  -5.92562  -5.92548  -5.92483
 Alpha  occ. eigenvalues --   -5.92228  -0.91704  -0.89245  -0.84945  -0.77758
 Alpha  occ. eigenvalues --   -0.77257  -0.75729  -0.71444  -0.70474  -0.68130
 Alpha  occ. eigenvalues --   -0.61464  -0.57862  -0.56954  -0.53588  -0.52304
 Alpha  occ. eigenvalues --   -0.50100  -0.49748  -0.44529  -0.43900  -0.43584
 Alpha  occ. eigenvalues --   -0.42048  -0.41579  -0.40138  -0.39494  -0.38969
 Alpha  occ. eigenvalues --   -0.37944  -0.37659  -0.36720  -0.34836  -0.34251
 Alpha  occ. eigenvalues --   -0.33934  -0.29228  -0.26291  -0.25434  -0.23803
 Alpha  occ. eigenvalues --   -0.20845
 Alpha virt. eigenvalues --   -0.05923  -0.01781  -0.00585  -0.00418   0.00063
 Alpha virt. eigenvalues --    0.00490   0.01103   0.01471   0.02012   0.02607
 Alpha virt. eigenvalues --    0.03035   0.03434   0.03885   0.04131   0.04781

 Mulliken charges:
               1
     1  C   -0.005536
     2  C    0.156418
     3  C    0.566801
     4  C   -0.908528
     5  C   -0.069559
     6  H    0.122873
     7  S   -0.474389
     8  H    0.160174
     9  C    0.507145
    10  S   -0.531059
    11  C    0.417031
    12  C    0.119232
    13  C   -0.192535
    14  H    0.142916
    15  S   -0.402884
    16  C   -0.132623
    17  C   -0.258670
    18  H    0.167157
    19  H    0.135173
    20  H    0.143101
    21  H    0.174469
    22  H    0.163291
 Sum of Mulliken charges =  -0.00000

 Dipole moment (field-independent basis, Debye):
    X=             -0.4085    Y=              0.8843    Z=              0.2883  Tot=              1.0159
 Quadrupole moment (field-independent basis, Debye-Ang):
   XX=            -87.9471   YY=            -98.3252   ZZ=           -108.7524
   XY=              1.9421   XZ=             -1.7284   YZ=             -0.7041

 Normal termination of Gaussian 16 at Sun Oct 17 00:31:23 2021.
