 Gaussian 16, Revision C.01,
 Gaussian 16:  ES64L-G16RevC.01  3-Jul-2019

 -------------------------------------
 # opt=modredundant b3lyp/6-311+g(d,p)
 -------------------------------------

 -------------
 pBTTT_115.pdb
 -------------
 Symbolic Z-matrix:
 Charge =  0 Multiplicity = 1

 SCF Done:  E(RB3LYP) =  -1618.67530210     A.U. after   17 cycles
 SCF Done:  E(RB3LYP) =  -1618.70519914     A.U. after   15 cycles
 SCF Done:  E(RB3LYP) =  -1618.71325354     A.U. after   16 cycles
 SCF Done:  E(RB3LYP) =  -1618.71510777     A.U. after   15 cycles
 SCF Done:  E(RB3LYP) =  -1618.71520870     A.U. after   15 cycles
 SCF Done:  E(RB3LYP) =  -1618.71587024     A.U. after   14 cycles
 SCF Done:  E(RB3LYP) =  -1618.71587673     A.U. after   13 cycles
 SCF Done:  E(RB3LYP) =  -1618.71601954     A.U. after   13 cycles
 SCF Done:  E(RB3LYP) =  -1618.71614129     A.U. after   13 cycles
 SCF Done:  E(RB3LYP) =  -1618.71626913     A.U. after   15 cycles
 SCF Done:  E(RB3LYP) =  -1618.71653067     A.U. after   13 cycles
 SCF Done:  E(RB3LYP) =  -1618.71672108     A.U. after   14 cycles
 SCF Done:  E(RB3LYP) =  -1618.71685842     A.U. after   13 cycles
 SCF Done:  E(RB3LYP) =  -1618.71687302     A.U. after   13 cycles
 SCF Done:  E(RB3LYP) =  -1618.71687945     A.U. after   12 cycles
 SCF Done:  E(RB3LYP) =  -1618.71687973     A.U. after   10 cycles
 SCF Done:  E(RB3LYP) =  -1618.71687974     A.U. after   10 cycles
 SCF Done:  E(RB3LYP) =  -1618.71687981     A.U. after   10 cycles
 Optimization completed.
    -- Stationary point found.

                         Standard orientation:
 ---------------------------------------------------------------------
 Center     Atomic      Atomic             Coordinates (Angstroms)
 Number     Number       Type             X           Y           Z
 ---------------------------------------------------------------------
      1          6           0       -3.957659    0.728898    0.188933
      2          6           0       -2.572497    1.019034    0.402384
      3          6           0       -1.753915    0.028501   -0.096399
      4          6           0       -2.096519    2.257978    1.109576
      5          6           0       -4.177918   -0.459231   -0.443219
      6          1           0       -4.756523    1.385226    0.511399
      7         16           0       -2.696500   -1.267821   -0.815370
      8          1           0       -5.121591   -0.909069   -0.712151
      9          6           0       -0.296461   -0.048830   -0.064279
     10         16           0        0.511844   -1.326625    0.861623
     11          6           0        2.077612   -0.696547    0.433420
     12          6           0        1.950122    0.437145   -0.359056
     13          6           0        0.607267    0.804224   -0.644786
     14          1           0        0.306781    1.640389   -1.260847
     15         16           0        3.518409    1.067301   -0.788924
     16          6           0        4.303934   -0.211477    0.109017
     17          6           0        3.425345   -1.071645    0.701784
     18          1           0        5.382323   -0.243411    0.140423
     19          1           0        3.729070   -1.922025    1.296235
     20          1           0       -2.663436    2.417684    2.031250
     21          1           0       -2.233700    3.148038    0.486251
     22          1           0       -1.038833    2.189176    1.365936
 ---------------------------------------------------------------------

 The electronic state is 1-A.
 Alpha  occ. eigenvalues --  -88.88471 -88.88254 -88.87918 -10.22228 -10.21304
 Alpha  occ. eigenvalues --  -10.21166 -10.21110 -10.21078 -10.20489 -10.19365
 Alpha  occ. eigenvalues --  -10.19362 -10.19307 -10.18055 -10.17431  -7.97045
 Alpha  occ. eigenvalues --   -7.96824  -7.96533  -5.93357  -5.93140  -5.92993
 Alpha  occ. eigenvalues --   -5.92824  -5.92778  -5.92595  -5.92448  -5.92360
 Alpha  occ. eigenvalues --   -5.92127  -0.91650  -0.89150  -0.84914  -0.77739
 Alpha  occ. eigenvalues --   -0.76993  -0.75645  -0.71430  -0.70546  -0.67934
 Alpha  occ. eigenvalues --   -0.61355  -0.57471  -0.56828  -0.54261  -0.52038
 Alpha  occ. eigenvalues --   -0.49950  -0.49697  -0.44597  -0.43705  -0.43586
 Alpha  occ. eigenvalues --   -0.42077  -0.41450  -0.39961  -0.39561  -0.39027
 Alpha  occ. eigenvalues --   -0.37701  -0.37442  -0.36514  -0.34913  -0.34276
 Alpha  occ. eigenvalues --   -0.33765  -0.29100  -0.25497  -0.25064  -0.23733
 Alpha  occ. eigenvalues --   -0.21895
 Alpha virt. eigenvalues --   -0.05053  -0.02711  -0.00555  -0.00305   0.00212
 Alpha virt. eigenvalues --    0.00588   0.00731   0.01581   0.01850   0.02775
 Alpha virt. eigenvalues --    0.02872   0.03204   0.03731   0.03908   0.04429

 Mulliken charges:
               1
     1  C   -0.140762
     2  C    0.083949
     3  C    0.178575
     4  C   -0.736541
     5  C   -0.031784
     6  H    0.127407
     7  S   -0.288569
     8  H    0.160354
     9  C    0.212563
    10  S   -0.592173
    11  C    0.157283
    12  C   -0.446613
    13  C    0.611135
    14  H    0.131210
    15  S   -0.393311
    16  C   -0.217499
    17  C    0.401784
    18  H    0.167640
    19  H    0.135515
    20  H    0.148530
    21  H    0.161346
    22  H    0.169963
 Sum of Mulliken charges =  -0.00000

 Dipole moment (field-independent basis, Debye):
    X=             -0.2392    Y=              0.8577    Z=              0.4576  Tot=              1.0012
 Quadrupole moment (field-independent basis, Debye-Ang):
   XX=            -88.4073   YY=           -100.7070   ZZ=           -106.2008
   XY=             -4.4503   XZ=              1.3815   YZ=             -1.1795

 Normal termination of Gaussian 16 at Sun Oct 17 01:26:18 2021.
