 Gaussian 16, Revision C.01,
 Gaussian 16:  ES64L-G16RevC.01  3-Jul-2019

 -------------------------------------
 # opt=modredundant b3lyp/6-311+g(d,p)
 -------------------------------------

 ------------
 pBTTT_60.pdb
 ------------
 Symbolic Z-matrix:
 Charge =  0 Multiplicity = 1

 SCF Done:  E(RB3LYP) =  -1618.67551670     A.U. after   17 cycles
 SCF Done:  E(RB3LYP) =  -1618.70529534     A.U. after   15 cycles
 SCF Done:  E(RB3LYP) =  -1618.71348688     A.U. after   15 cycles
 SCF Done:  E(RB3LYP) =  -1618.71540407     A.U. after   14 cycles
 SCF Done:  E(RB3LYP) =  -1618.71566602     A.U. after   14 cycles
 SCF Done:  E(RB3LYP) =  -1618.71626637     A.U. after   13 cycles
 SCF Done:  E(RB3LYP) =  -1618.71625916     A.U. after   13 cycles
 SCF Done:  E(RB3LYP) =  -1618.71631808     A.U. after   13 cycles
 SCF Done:  E(RB3LYP) =  -1618.71639876     A.U. after   12 cycles
 SCF Done:  E(RB3LYP) =  -1618.71658725     A.U. after   13 cycles
 SCF Done:  E(RB3LYP) =  -1618.71654512     A.U. after   15 cycles
 SCF Done:  E(RB3LYP) =  -1618.71694528     A.U. after   14 cycles
 SCF Done:  E(RB3LYP) =  -1618.71684671     A.U. after   12 cycles
 SCF Done:  E(RB3LYP) =  -1618.71706059     A.U. after   13 cycles
 SCF Done:  E(RB3LYP) =  -1618.71703883     A.U. after   12 cycles
 SCF Done:  E(RB3LYP) =  -1618.71706729     A.U. after   11 cycles
 SCF Done:  E(RB3LYP) =  -1618.71706857     A.U. after   12 cycles
 SCF Done:  E(RB3LYP) =  -1618.71706877     A.U. after   10 cycles
 SCF Done:  E(RB3LYP) =  -1618.71706885     A.U. after    9 cycles
 SCF Done:  E(RB3LYP) =  -1618.71706886     A.U. after    8 cycles
 Optimization completed.
    -- Stationary point found.

                         Standard orientation:
 ---------------------------------------------------------------------
 Center     Atomic      Atomic             Coordinates (Angstroms)
 Number     Number       Type             X           Y           Z
 ---------------------------------------------------------------------
      1          6           0        4.023261    0.295352    0.327746
      2          6           0        2.689377    0.784077    0.496274
      3          6           0        1.749111   -0.107216    0.024129
      4          6           0        2.383829    2.108525    1.142236
      5          6           0        4.088704   -0.937592   -0.252559
      6          1           0        4.899235    0.846919    0.646166
      7         16           0        2.515723   -1.545253   -0.629742
      8          1           0        4.965536   -1.525915   -0.476627
      9          6           0        0.292816   -0.015461    0.019674
     10         16           0       -0.520385    1.310403   -0.831218
     11          6           0       -2.084870    0.658392   -0.431154
     12          6           0       -1.953116   -0.521135    0.290652
     13          6           0       -0.609842   -0.906663    0.544677
     14          1           0       -0.307878   -1.784936    1.098544
     15         16           0       -3.519153   -1.171106    0.698257
     16          6           0       -4.309207    0.162137   -0.112131
     17          6           0       -3.433594    1.054405   -0.660558
     18          1           0       -5.387740    0.197561   -0.133012
     19          1           0       -3.740384    1.939470   -1.200294
     20          1           0        3.026437    2.266981    2.012608
     21          1           0        1.345790    2.167076    1.471050
     22          1           0        2.561214    2.939196    0.450902
 ---------------------------------------------------------------------

 The electronic state is 1-A.
 Alpha  occ. eigenvalues --  -88.88453 -88.88290 -88.87958 -10.22285 -10.21335
 Alpha  occ. eigenvalues --  -10.21170 -10.21111 -10.21071 -10.20446 -10.19370
 Alpha  occ. eigenvalues --  -10.19317 -10.19252 -10.18052 -10.17409  -7.97027
 Alpha  occ. eigenvalues --   -7.96863  -7.96570  -5.93339  -5.93181  -5.92974
 Alpha  occ. eigenvalues --   -5.92862  -5.92818  -5.92576  -5.92485  -5.92395
 Alpha  occ. eigenvalues --   -5.92163  -0.91658  -0.89159  -0.84919  -0.77562
 Alpha  occ. eigenvalues --   -0.77229  -0.75612  -0.71430  -0.70497  -0.67958
 Alpha  occ. eigenvalues --   -0.61363  -0.57657  -0.56819  -0.53881  -0.52173
 Alpha  occ. eigenvalues --   -0.49977  -0.49695  -0.44526  -0.43811  -0.43521
 Alpha  occ. eigenvalues --   -0.42090  -0.41464  -0.39985  -0.39473  -0.39024
 Alpha  occ. eigenvalues --   -0.37736  -0.37395  -0.36661  -0.34886  -0.34247
 Alpha  occ. eigenvalues --   -0.33782  -0.29110  -0.25621  -0.25141  -0.23785
 Alpha  occ. eigenvalues --   -0.21646
 Alpha virt. eigenvalues --   -0.05287  -0.02341  -0.00605  -0.00413  -0.00045
 Alpha virt. eigenvalues --    0.00500   0.00892   0.01517   0.01926   0.02522
 Alpha virt. eigenvalues --    0.03097   0.03402   0.03791   0.04186   0.04544

 Mulliken charges:
               1
     1  C    0.065810
     2  C   -0.476663
     3  C    0.383532
     4  C   -0.818581
     5  C   -0.165108
     6  H    0.125921
     7  S   -0.262687
     8  H    0.160442
     9  C    0.759058
    10  S   -0.520582
    11  C    0.260437
    12  C   -0.548795
    13  C    0.561579
    14  H    0.141226
    15  S   -0.380860
    16  C   -0.214425
    17  C    0.153653
    18  H    0.167470
    19  H    0.135557
    20  H    0.145405
    21  H    0.159991
    22  H    0.167619
 Sum of Mulliken charges =  -0.00000

 Dipole moment (field-independent basis, Debye):
    X=              0.3262    Y=              0.7903    Z=              0.4426  Tot=              0.9627
 Quadrupole moment (field-independent basis, Debye-Ang):
   XX=            -88.0996   YY=           -100.2237   ZZ=           -106.7370
   XY=             -1.7739   XZ=              2.8194   YZ=             -1.0584

 Normal termination of Gaussian 16 at Sun Oct 17 01:10:58 2021.
