 Gaussian 16, Revision C.01,
 Gaussian 16:  ES64L-G16RevC.01  3-Jul-2019

 -------------------------------------
 # opt=modredundant b3lyp/6-311+g(d,p)
 -------------------------------------

 -------------
 pBTTT_-95.pdb
 -------------
 Symbolic Z-matrix:
 Charge =  0 Multiplicity = 1

 SCF Done:  E(RB3LYP) =  -1618.67374244     A.U. after   17 cycles
 SCF Done:  E(RB3LYP) =  -1618.70410614     A.U. after   15 cycles
 SCF Done:  E(RB3LYP) =  -1618.71255324     A.U. after   14 cycles
 SCF Done:  E(RB3LYP) =  -1618.71448908     A.U. after   15 cycles
 SCF Done:  E(RB3LYP) =  -1618.71475384     A.U. after   14 cycles
 SCF Done:  E(RB3LYP) =  -1618.71529252     A.U. after   13 cycles
 SCF Done:  E(RB3LYP) =  -1618.71518460     A.U. after   13 cycles
 SCF Done:  E(RB3LYP) =  -1618.71532555     A.U. after   13 cycles
 SCF Done:  E(RB3LYP) =  -1618.71534558     A.U. after   12 cycles
 SCF Done:  E(RB3LYP) =  -1618.71534674     A.U. after   11 cycles
 SCF Done:  E(RB3LYP) =  -1618.71534685     A.U. after   10 cycles
 Optimization completed.
    -- Stationary point found.

                         Standard orientation:
 ---------------------------------------------------------------------
 Center     Atomic      Atomic             Coordinates (Angstroms)
 Number     Number       Type             X           Y           Z
 ---------------------------------------------------------------------
      1          6           0        3.971720    0.677830    0.116759
      2          6           0        2.595566    0.983827    0.353446
      3          6           0        1.758301   -0.007762   -0.109025
      4          6           0        2.124284    2.239488    1.039455
      5          6           0        4.166801   -0.521914   -0.505518
      6          1           0        4.782561    1.334860    0.405424
      7         16           0        2.670611   -1.320802   -0.828176
      8          1           0        5.099646   -0.981174   -0.795471
      9          6           0        0.296383   -0.054518   -0.049078
     10         16           0       -0.514588   -0.899639    1.281945
     11          6           0       -2.079003   -0.473583    0.647757
     12          6           0       -1.949043    0.273433   -0.516135
     13          6           0       -0.604616    0.509606   -0.913652
     14          1           0       -0.300882    1.061016   -1.792922
     15         16           0       -3.515646    0.698770   -1.153468
     16          6           0       -4.304181   -0.139289    0.163283
     17          6           0       -3.428107   -0.711782    1.039380
     18          1           0       -5.382671   -0.154197    0.203544
     19          1           0       -3.734079   -1.270885    1.912617
     20          1           0        2.969791    2.883653    1.287713
     21          1           0        1.591572    2.011135    1.967041
     22          1           0        1.439401    2.810308    0.407197
 ---------------------------------------------------------------------

 The electronic state is 1-A.
 Alpha  occ. eigenvalues --  -88.88472 -88.88227 -88.87976 -10.22148 -10.21161
 Alpha  occ. eigenvalues --  -10.21094 -10.21093 -10.21083 -10.20421 -10.19392
 Alpha  occ. eigenvalues --  -10.19367 -10.19250 -10.18044 -10.17400  -7.97046
 Alpha  occ. eigenvalues --   -7.96796  -7.96585  -5.93358  -5.93111  -5.92993
 Alpha  occ. eigenvalues --   -5.92870  -5.92747  -5.92596  -5.92495  -5.92335
 Alpha  occ. eigenvalues --   -5.92190  -0.91623  -0.89133  -0.84896  -0.77588
 Alpha  occ. eigenvalues --   -0.77073  -0.75527  -0.71416  -0.70553  -0.67880
 Alpha  occ. eigenvalues --   -0.61286  -0.57495  -0.56697  -0.54247  -0.52073
 Alpha  occ. eigenvalues --   -0.49938  -0.49691  -0.44528  -0.43633  -0.43450
 Alpha  occ. eigenvalues --   -0.41966  -0.41494  -0.39901  -0.39484  -0.39129
 Alpha  occ. eigenvalues --   -0.37706  -0.37431  -0.36575  -0.34936  -0.34269
 Alpha  occ. eigenvalues --   -0.33606  -0.29061  -0.25519  -0.24136  -0.23809
 Alpha  occ. eigenvalues --   -0.22546
 Alpha virt. eigenvalues --   -0.04581  -0.03459  -0.00586  -0.00341   0.00077
 Alpha virt. eigenvalues --    0.00440   0.00752   0.01691   0.01717   0.02783
 Alpha virt. eigenvalues --    0.02977   0.03340   0.03694   0.04132   0.04416

 Mulliken charges:
               1
     1  C    0.029904
     2  C   -0.337388
     3  C    0.193067
     4  C   -0.589806
     5  C   -0.098309
     6  H    0.123237
     7  S   -0.230490
     8  H    0.159991
     9  C    0.176554
    10  S   -0.504235
    11  C    0.132561
    12  C   -0.556607
    13  C    0.710980
    14  H    0.134167
    15  S   -0.389277
    16  C   -0.229777
    17  C    0.504708
    18  H    0.167446
    19  H    0.135550
    20  H    0.144081
    21  H    0.163381
    22  H    0.160262
 Sum of Mulliken charges =  -0.00000

 Dipole moment (field-independent basis, Debye):
    X=              0.1816    Y=              0.8650    Z=              0.4002  Tot=              0.9702
 Quadrupole moment (field-independent basis, Debye-Ang):
   XX=            -88.6498   YY=           -103.3650   ZZ=           -103.5707
   XY=              3.3723   XZ=             -2.4960   YZ=             -1.0689

 Normal termination of Gaussian 16 at Sat Oct 16 23:38:25 2021.
