 Gaussian 16, Revision C.01,
 Gaussian 16:  ES64L-G16RevC.01  3-Jul-2019

 -------------------------------------
 # opt=modredundant b3lyp/6-311+g(d,p)
 -------------------------------------

 --------------
 pBTTT_-170.pdb
 --------------
 Symbolic Z-matrix:
 Charge =  0 Multiplicity = 1

 SCF Done:  E(RB3LYP) =  -1618.67707626     A.U. after   16 cycles
 SCF Done:  E(RB3LYP) =  -1618.70520949     A.U. after   14 cycles
 SCF Done:  E(RB3LYP) =  -1618.71272656     A.U. after   14 cycles
 SCF Done:  E(RB3LYP) =  -1618.71473381     A.U. after   13 cycles
 SCF Done:  E(RB3LYP) =  -1618.71523595     A.U. after   12 cycles
 SCF Done:  E(RB3LYP) =  -1618.71551519     A.U. after   13 cycles
 SCF Done:  E(RB3LYP) =  -1618.71561650     A.U. after   12 cycles
 SCF Done:  E(RB3LYP) =  -1618.71562170     A.U. after   12 cycles
 SCF Done:  E(RB3LYP) =  -1618.71565186     A.U. after   11 cycles
 SCF Done:  E(RB3LYP) =  -1618.71566448     A.U. after   11 cycles
 SCF Done:  E(RB3LYP) =  -1618.71566958     A.U. after   10 cycles
 SCF Done:  E(RB3LYP) =  -1618.71567057     A.U. after    9 cycles
 SCF Done:  E(RB3LYP) =  -1618.71567076     A.U. after    9 cycles
 Optimization completed.
    -- Stationary point found.

                         Standard orientation:
 ---------------------------------------------------------------------
 Center     Atomic      Atomic             Coordinates (Angstroms)
 Number     Number       Type             X           Y           Z
 ---------------------------------------------------------------------
      1          6           0        3.962397    0.790313   -0.005545
      2          6           0        2.584992    1.153373    0.083938
      3          6           0        1.747881    0.049326    0.017624
      4          6           0        2.148446    2.581939    0.258557
      5          6           0        4.176653   -0.549612   -0.142280
      6          1           0        4.764385    1.516499    0.039308
      7         16           0        2.688344   -1.424091   -0.176528
      8          1           0        5.114085   -1.077792   -0.222316
      9          6           0        0.298221   -0.014419    0.034101
     10         16           0       -0.515098   -1.585797    0.202974
     11          6           0       -2.082949   -0.837630    0.088752
     12          6           0       -1.957138    0.535966   -0.061119
     13          6           0       -0.619594    1.006813   -0.098392
     14          1           0       -0.347952    2.039586   -0.243846
     15         16           0       -3.527553    1.287169   -0.173531
     16          6           0       -4.309458   -0.269554   -0.014271
     17          6           0       -3.426864   -1.303626    0.117136
     18          1           0       -5.387468   -0.318808   -0.028753
     19          1           0       -3.727172   -2.336414    0.226146
     20          1           0        3.005206    3.211792    0.505100
     21          1           0        1.413713    2.685354    1.061957
     22          1           0        1.698602    2.985967   -0.655237
 ---------------------------------------------------------------------

 The electronic state is 1-A.
 Alpha  occ. eigenvalues --  -88.88457 -88.88267 -88.88121 -10.22721 -10.21833
 Alpha  occ. eigenvalues --  -10.21174 -10.21114 -10.21040 -10.20541 -10.19436
 Alpha  occ. eigenvalues --  -10.19375 -10.19261 -10.18229 -10.18007  -7.97031
 Alpha  occ. eigenvalues --   -7.96858  -7.96754  -5.93344  -5.93183  -5.93052
 Alpha  occ. eigenvalues --   -5.92980  -5.92820  -5.92672  -5.92579  -5.92370
 Alpha  occ. eigenvalues --   -5.92334  -0.91732  -0.89359  -0.84950  -0.78197
 Alpha  occ. eigenvalues --   -0.76936  -0.75995  -0.71436  -0.70582  -0.68353
 Alpha  occ. eigenvalues --   -0.61556  -0.57566  -0.57404  -0.54078  -0.52250
 Alpha  occ. eigenvalues --   -0.50126  -0.49791  -0.44590  -0.43918  -0.43848
 Alpha  occ. eigenvalues --   -0.41961  -0.41754  -0.40414  -0.39781  -0.38812
 Alpha  occ. eigenvalues --   -0.38204  -0.37972  -0.36358  -0.35177  -0.34424
 Alpha  occ. eigenvalues --   -0.33698  -0.29337  -0.26758  -0.25609  -0.23745
 Alpha  occ. eigenvalues --   -0.20487
 Alpha virt. eigenvalues --   -0.06328  -0.01800  -0.01095  -0.00502   0.00321
 Alpha virt. eigenvalues --    0.00747   0.01296   0.01463   0.02093   0.02737
 Alpha virt. eigenvalues --    0.03249   0.03490   0.03835   0.04337   0.04744

 Mulliken charges:
               1
     1  C    0.130729
     2  C    0.422133
     3  C    0.645845
     4  C   -1.116100
     5  C   -0.126630
     6  H    0.120156
     7  S   -0.568276
     8  H    0.158784
     9  C    0.148357
    10  S   -0.573694
    11  C    0.392534
    12  C    0.207065
    13  C    0.021742
    14  H    0.134714
    15  S   -0.408004
    16  C   -0.112870
    17  C   -0.252759
    18  H    0.167045
    19  H    0.134870
    20  H    0.146941
    21  H    0.160569
    22  H    0.166849
 Sum of Mulliken charges =  -0.00000

 Dipole moment (field-independent basis, Debye):
    X=              0.3561    Y=              0.8967    Z=              0.0244  Tot=              0.9652
 Quadrupole moment (field-independent basis, Debye-Ang):
   XX=            -88.0161   YY=            -97.1574   ZZ=           -109.8407
   XY=              5.2849   XZ=             -0.2994   YZ=             -0.1673

 Normal termination of Gaussian 16 at Sat Oct 16 22:34:30 2021.
