 Gaussian 16, Revision C.01,
 Gaussian 16:  ES64L-G16RevC.01  3-Jul-2019

 -------------------------------------
 # opt=modredundant b3lyp/6-311+g(d,p)
 -------------------------------------

 -------------
 pBTTT_-70.pdb
 -------------
 Symbolic Z-matrix:
 Charge =  0 Multiplicity = 1

 SCF Done:  E(RB3LYP) =  -1618.67525754     A.U. after   17 cycles
 SCF Done:  E(RB3LYP) =  -1618.70519588     A.U. after   14 cycles
 SCF Done:  E(RB3LYP) =  -1618.71344209     A.U. after   14 cycles
 SCF Done:  E(RB3LYP) =  -1618.71521956     A.U. after   14 cycles
 SCF Done:  E(RB3LYP) =  -1618.71538363     A.U. after   14 cycles
 SCF Done:  E(RB3LYP) =  -1618.71594705     A.U. after   13 cycles
 SCF Done:  E(RB3LYP) =  -1618.71592849     A.U. after   13 cycles
 SCF Done:  E(RB3LYP) =  -1618.71599373     A.U. after   13 cycles
 SCF Done:  E(RB3LYP) =  -1618.71605120     A.U. after   12 cycles
 SCF Done:  E(RB3LYP) =  -1618.71618280     A.U. after   12 cycles
 SCF Done:  E(RB3LYP) =  -1618.71619631     A.U. after   13 cycles
 SCF Done:  E(RB3LYP) =  -1618.71615160     A.U. after   14 cycles
 SCF Done:  E(RB3LYP) =  -1618.71656665     A.U. after   15 cycles
 SCF Done:  E(RB3LYP) =  -1618.71643767     A.U. after   13 cycles
 SCF Done:  E(RB3LYP) =  -1618.71667960     A.U. after   13 cycles
 SCF Done:  E(RB3LYP) =  -1618.71669439     A.U. after   12 cycles
 SCF Done:  E(RB3LYP) =  -1618.71669597     A.U. after   12 cycles
 SCF Done:  E(RB3LYP) =  -1618.71671503     A.U. after   12 cycles
 SCF Done:  E(RB3LYP) =  -1618.71671630     A.U. after   10 cycles
 SCF Done:  E(RB3LYP) =  -1618.71671645     A.U. after   10 cycles
 Optimization completed.
    -- Stationary point found.

                         Standard orientation:
 ---------------------------------------------------------------------
 Center     Atomic      Atomic             Coordinates (Angstroms)
 Number     Number       Type             X           Y           Z
 ---------------------------------------------------------------------
      1          6           0       -4.015298    0.310912    0.390621
      2          6           0       -2.671273    0.768700    0.569192
      3          6           0       -1.752110   -0.102055    0.026372
      4          6           0       -2.329680    2.045595    1.287404
      5          6           0       -4.106048   -0.880430   -0.267762
      6          1           0       -4.878895    0.853247    0.755362
      7         16           0       -2.547534   -1.486160   -0.704123
      8          1           0       -4.994637   -1.440131   -0.517679
      9          6           0       -0.292661   -0.018897    0.011777
     10         16           0        0.520476    1.204807   -0.980360
     11          6           0        2.084551    0.602865   -0.507597
     12          6           0        1.952493   -0.487393    0.343127
     13          6           0        0.608294   -0.844226    0.634860
     14          1           0        0.304509   -1.658001    1.278959
     15         16           0        3.518108   -1.088217    0.821638
     16          6           0        4.308746    0.144134   -0.134462
     17          6           0        3.433897    0.968935   -0.780695
     18          1           0        5.387317    0.176810   -0.158494
     19          1           0        3.741265    1.786951   -1.417197
     20          1           0       -2.883877    2.118918    2.227560
     21          1           0       -2.593008    2.921331    0.685026
     22          1           0       -1.264921    2.105157    1.514968
 ---------------------------------------------------------------------

 The electronic state is 1-A.
 Alpha  occ. eigenvalues --  -88.88461 -88.88254 -88.87921 -10.22213 -10.21248
 Alpha  occ. eigenvalues --  -10.21167 -10.21103 -10.21084 -10.20446 -10.19369
 Alpha  occ. eigenvalues --  -10.19357 -10.19242 -10.18024 -10.17377  -7.97035
 Alpha  occ. eigenvalues --   -7.96825  -7.96531  -5.93347  -5.93141  -5.92982
 Alpha  occ. eigenvalues --   -5.92822  -5.92778  -5.92585  -5.92445  -5.92360
 Alpha  occ. eigenvalues --   -5.92126  -0.91641  -0.89128  -0.84907  -0.77527
 Alpha  occ. eigenvalues --   -0.77202  -0.75565  -0.71421  -0.70511  -0.67908
 Alpha  occ. eigenvalues --   -0.61328  -0.57593  -0.56752  -0.54006  -0.52127
 Alpha  occ. eigenvalues --   -0.49945  -0.49683  -0.44533  -0.43760  -0.43530
 Alpha  occ. eigenvalues --   -0.42107  -0.41441  -0.39944  -0.39470  -0.39014
 Alpha  occ. eigenvalues --   -0.37692  -0.37339  -0.36614  -0.34895  -0.34252
 Alpha  occ. eigenvalues --   -0.33702  -0.29086  -0.25473  -0.24814  -0.23791
 Alpha  occ. eigenvalues --   -0.22039
 Alpha virt. eigenvalues --   -0.04988  -0.02670  -0.00589  -0.00378  -0.00037
 Alpha virt. eigenvalues --    0.00498   0.00837   0.01562   0.01891   0.02519
 Alpha virt. eigenvalues --    0.03118   0.03309   0.03718   0.04210   0.04395

 Mulliken charges:
               1
     1  C    0.100611
     2  C   -0.501919
     3  C    0.337401
     4  C   -0.820370
     5  C   -0.172552
     6  H    0.125943
     7  S   -0.221881
     8  H    0.160378
     9  C    0.794032
    10  S   -0.499519
    11  C    0.261648
    12  C   -0.506484
    13  C    0.469797
    14  H    0.139215
    15  S   -0.379666
    16  C   -0.213074
    17  C    0.148989
    18  H    0.167533
    19  H    0.135766
    20  H    0.148465
    21  H    0.164578
    22  H    0.161110
 Sum of Mulliken charges =  -0.00000

 Dipole moment (field-independent basis, Debye):
    X=             -0.2965    Y=              0.7582    Z=              0.5031  Tot=              0.9570
 Quadrupole moment (field-independent basis, Debye-Ang):
   XX=            -88.1398   YY=           -101.2786   ZZ=           -105.6622
   XY=              1.5801   XZ=             -3.2651   YZ=             -1.1364

 Normal termination of Gaussian 16 at Sun Oct 17 00:14:10 2021.
