 Gaussian 16, Revision C.01,
 Gaussian 16:  ES64L-G16RevC.01  3-Jul-2019

 -------------------------------------
 # opt=modredundant b3lyp/6-311+g(d,p)
 -------------------------------------

 --------------
 pBTTT_-135.pdb
 --------------
 Symbolic Z-matrix:
 Charge =  0 Multiplicity = 1

 SCF Done:  E(RB3LYP) =  -1618.67557140     A.U. after   17 cycles
 SCF Done:  E(RB3LYP) =  -1618.70507590     A.U. after   14 cycles
 SCF Done:  E(RB3LYP) =  -1618.71346549     A.U. after   14 cycles
 SCF Done:  E(RB3LYP) =  -1618.71537382     A.U. after   14 cycles
 SCF Done:  E(RB3LYP) =  -1618.71589157     A.U. after   16 cycles
 SCF Done:  E(RB3LYP) =  -1618.71653275     A.U. after   13 cycles
 SCF Done:  E(RB3LYP) =  -1618.71659575     A.U. after   13 cycles
 SCF Done:  E(RB3LYP) =  -1618.71691215     A.U. after   13 cycles
 SCF Done:  E(RB3LYP) =  -1618.71720551     A.U. after   13 cycles
 SCF Done:  E(RB3LYP) =  -1618.71733735     A.U. after   14 cycles
 SCF Done:  E(RB3LYP) =  -1618.71738586     A.U. after   13 cycles
 SCF Done:  E(RB3LYP) =  -1618.71739655     A.U. after   11 cycles
 SCF Done:  E(RB3LYP) =  -1618.71739823     A.U. after   11 cycles
 SCF Done:  E(RB3LYP) =  -1618.71739879     A.U. after   10 cycles
 SCF Done:  E(RB3LYP) =  -1618.71739882     A.U. after    9 cycles
 Optimization completed.
    -- Stationary point found.

                         Standard orientation:
 ---------------------------------------------------------------------
 Center     Atomic      Atomic             Coordinates (Angstroms)
 Number     Number       Type             X           Y           Z
 ---------------------------------------------------------------------
      1          6           0        3.955295    0.768435    0.123616
      2          6           0        2.572247    1.086354    0.298997
      3          6           0        1.750582    0.034751   -0.057274
      4          6           0        2.106024    2.410323    0.839908
      5          6           0        4.175874   -0.493360   -0.344864
      6          1           0        4.754406    1.460877    0.357727
      7         16           0        2.693551   -1.342133   -0.607180
      8          1           0        5.118628   -0.977481   -0.549006
      9          6           0        0.298371   -0.035915   -0.030570
     10         16           0       -0.514459   -1.468346    0.627981
     11          6           0       -2.079027   -0.772424    0.310073
     12          6           0       -1.948423    0.492227   -0.248950
     13          6           0       -0.606001    0.909855   -0.449608
     14          1           0       -0.309593    1.841987   -0.908998
     15         16           0       -3.515526    1.188122   -0.567961
     16          6           0       -4.304079   -0.241316    0.060167
     17          6           0       -3.426713   -1.196033    0.487552
     18          1           0       -5.382514   -0.281941    0.072942
     19          1           0       -3.732004   -2.145267    0.905316
     20          1           0        2.804080    2.782715    1.594042
     21          1           0        1.118351    2.330713    1.296934
     22          1           0        2.046706    3.168726    0.051322
 ---------------------------------------------------------------------

 The electronic state is 1-A.
 Alpha  occ. eigenvalues --  -88.88465 -88.88285 -88.88010 -10.22383 -10.21483
 Alpha  occ. eigenvalues --  -10.21182 -10.21114 -10.21054 -10.20506 -10.19364
 Alpha  occ. eigenvalues --  -10.19331 -10.19330 -10.18132 -10.17599  -7.97039
 Alpha  occ. eigenvalues --   -7.96860  -7.96629  -5.93352  -5.93179  -5.92987
 Alpha  occ. eigenvalues --   -5.92922  -5.92817  -5.92588  -5.92545  -5.92388
 Alpha  occ. eigenvalues --   -5.92218  -0.91688  -0.89232  -0.84938  -0.77913
 Alpha  occ. eigenvalues --   -0.76949  -0.75794  -0.71447  -0.70555  -0.68065
 Alpha  occ. eigenvalues --   -0.61440  -0.57488  -0.57066  -0.54196  -0.52075
 Alpha  occ. eigenvalues --   -0.50009  -0.49733  -0.44601  -0.43802  -0.43624
 Alpha  occ. eigenvalues --   -0.42025  -0.41520  -0.40078  -0.39683  -0.39009
 Alpha  occ. eigenvalues --   -0.37802  -0.37652  -0.36486  -0.34984  -0.34261
 Alpha  occ. eigenvalues --   -0.33918  -0.29172  -0.26001  -0.25382  -0.23783
 Alpha  occ. eigenvalues --   -0.21208
 Alpha virt. eigenvalues --   -0.05608  -0.02235  -0.00653  -0.00412   0.00267
 Alpha virt. eigenvalues --    0.00685   0.00866   0.01514   0.01978   0.02774
 Alpha virt. eigenvalues --    0.02922   0.03330   0.03842   0.04122   0.04499

 Mulliken charges:
               1
     1  C    0.053401
     2  C   -0.135156
     3  C    0.614509
     4  C   -0.985185
     5  C   -0.102950
     6  H    0.125466
     7  S   -0.381084
     8  H    0.160113
     9  C    0.500209
    10  S   -0.572692
    11  C    0.338778
    12  C   -0.225915
    13  C    0.322433
    14  H    0.134580
    15  S   -0.399512
    16  C   -0.173935
    17  C   -0.052586
    18  H    0.167551
    19  H    0.135755
    20  H    0.144476
    21  H    0.165032
    22  H    0.166712
 Sum of Mulliken charges =  -0.00000

 Dipole moment (field-independent basis, Debye):
    X=              0.2747    Y=              0.8682    Z=              0.3127  Tot=              0.9628
 Quadrupole moment (field-independent basis, Debye-Ang):
   XX=            -88.3277   YY=            -98.9965   ZZ=           -107.9533
   XY=              4.8703   XZ=             -0.9630   YZ=             -0.9139

 Normal termination of Gaussian 16 at Sat Oct 16 23:19:17 2021.
