 Gaussian 16, Revision C.01,
 Gaussian 16:  ES64L-G16RevC.01  3-Jul-2019

 -------------------------------------
 # opt=modredundant b3lyp/6-311+g(d,p)
 -------------------------------------

 -------------
 pBTTT_130.pdb
 -------------
 Symbolic Z-matrix:
 Charge =  0 Multiplicity = 1

 SCF Done:  E(RB3LYP) =  -1618.67646161     A.U. after   17 cycles
 SCF Done:  E(RB3LYP) =  -1618.70597243     A.U. after   15 cycles
 SCF Done:  E(RB3LYP) =  -1618.71376583     A.U. after   15 cycles
 SCF Done:  E(RB3LYP) =  -1618.71565812     A.U. after   15 cycles
 SCF Done:  E(RB3LYP) =  -1618.71580291     A.U. after   14 cycles
 SCF Done:  E(RB3LYP) =  -1618.71654398     A.U. after   14 cycles
 SCF Done:  E(RB3LYP) =  -1618.71663860     A.U. after   13 cycles
 SCF Done:  E(RB3LYP) =  -1618.71682938     A.U. after   13 cycles
 SCF Done:  E(RB3LYP) =  -1618.71711338     A.U. after   13 cycles
 SCF Done:  E(RB3LYP) =  -1618.71721578     A.U. after   13 cycles
 SCF Done:  E(RB3LYP) =  -1618.71730403     A.U. after   12 cycles
 SCF Done:  E(RB3LYP) =  -1618.71732387     A.U. after   12 cycles
 SCF Done:  E(RB3LYP) =  -1618.71732689     A.U. after   11 cycles
 SCF Done:  E(RB3LYP) =  -1618.71732717     A.U. after    9 cycles
 SCF Done:  E(RB3LYP) =  -1618.71732722     A.U. after    9 cycles
 Optimization completed.
    -- Stationary point found.

                         Standard orientation:
 ---------------------------------------------------------------------
 Center     Atomic      Atomic             Coordinates (Angstroms)
 Number     Number       Type             X           Y           Z
 ---------------------------------------------------------------------
      1          6           0       -3.954678    0.761667    0.144348
      2          6           0       -2.570376    1.072299    0.325954
      3          6           0       -1.751281    0.033961   -0.070015
      4          6           0       -2.099484    2.376549    0.908894
      5          6           0       -4.177280   -0.483609   -0.365400
      6          1           0       -4.752686    1.446350    0.403723
      7         16           0       -2.696472   -1.324506   -0.660067
      8          1           0       -5.121191   -0.959499   -0.583317
      9          6           0       -0.297983   -0.039924   -0.043308
     10         16           0        0.513157   -1.440981    0.680777
     11          6           0        2.078214   -0.757724    0.339070
     12          6           0        1.948736    0.481074   -0.275528
     13          6           0        0.606294    0.887968   -0.498744
     14          1           0        0.308710    1.800580   -0.995522
     15         16           0        3.516352    1.163918   -0.619054
     16          6           0        4.303773   -0.235689    0.074113
     17          6           0        3.425832   -1.171760    0.539593
     18          1           0        5.382201   -0.274454    0.092771
     19          1           0        3.730477   -2.101427    0.999684
     20          1           0       -2.765498    2.699424    1.713424
     21          1           0       -2.091699    3.172517    0.156062
     22          1           0       -1.089526    2.292735    1.312816
 ---------------------------------------------------------------------

 The electronic state is 1-A.
 Alpha  occ. eigenvalues --  -88.88465 -88.88279 -88.87988 -10.22339 -10.21438
 Alpha  occ. eigenvalues --  -10.21177 -10.21113 -10.21058 -10.20503 -10.19363
 Alpha  occ. eigenvalues --  -10.19336 -10.19325 -10.18113 -10.17550  -7.97040
 Alpha  occ. eigenvalues --   -7.96853  -7.96605  -5.93352  -5.93171  -5.92988
 Alpha  occ. eigenvalues --   -5.92898  -5.92808  -5.92589  -5.92521  -5.92383
 Alpha  occ. eigenvalues --   -5.92196  -0.91679  -0.89212  -0.84932  -0.77869
 Alpha  occ. eigenvalues --   -0.76957  -0.75758  -0.71444  -0.70552  -0.68029
 Alpha  occ. eigenvalues --   -0.61419  -0.57481  -0.57007  -0.54215  -0.52062
 Alpha  occ. eigenvalues --   -0.49994  -0.49723  -0.44601  -0.43779  -0.43608
 Alpha  occ. eigenvalues --   -0.42037  -0.41497  -0.40041  -0.39658  -0.39018
 Alpha  occ. eigenvalues --   -0.37773  -0.37593  -0.36498  -0.34960  -0.34265
 Alpha  occ. eigenvalues --   -0.33890  -0.29150  -0.25854  -0.25344  -0.23771
 Alpha  occ. eigenvalues --   -0.21360
 Alpha virt. eigenvalues --   -0.05476  -0.02341  -0.00613  -0.00381   0.00254
 Alpha virt. eigenvalues --    0.00673   0.00814   0.01526   0.01952   0.02772
 Alpha virt. eigenvalues --    0.02907   0.03316   0.03857   0.04032   0.04472

 Mulliken charges:
               1
     1  C    0.046935
     2  C   -0.166293
     3  C    0.619618
     4  C   -0.968147
     5  C   -0.105975
     6  H    0.125619
     7  S   -0.357939
     8  H    0.160198
     9  C    0.494057
    10  S   -0.567607
    11  C    0.317443
    12  C   -0.253173
    13  C    0.335657
    14  H    0.133108
    15  S   -0.398869
    16  C   -0.181343
    17  C   -0.013513
    18  H    0.167585
    19  H    0.135757
    20  H    0.144758
    21  H    0.165970
    22  H    0.166154
 Sum of Mulliken charges =  -0.00000

 Dipole moment (field-independent basis, Debye):
    X=             -0.2660    Y=              0.8662    Z=              0.3557  Tot=              0.9735
 Quadrupole moment (field-independent basis, Debye-Ang):
   XX=            -88.3612   YY=            -99.3627   ZZ=           -107.5728
   XY=             -4.7775   XZ=              1.0544   YZ=             -1.0012

 Normal termination of Gaussian 16 at Sun Oct 17 01:24:01 2021.
