 Gaussian 16, Revision C.01,
 Gaussian 16:  ES64L-G16RevC.01  3-Jul-2019

 -------------------------------------
 # opt=modredundant b3lyp/6-311+g(d,p)
 -------------------------------------

 --------------
 pBTTT_-105.pdb
 --------------
 Symbolic Z-matrix:
 Charge =  0 Multiplicity = 1

 SCF Done:  E(RB3LYP) =  -1618.67382626     A.U. after   17 cycles
 SCF Done:  E(RB3LYP) =  -1618.70407577     A.U. after   14 cycles
 SCF Done:  E(RB3LYP) =  -1618.71268567     A.U. after   14 cycles
 SCF Done:  E(RB3LYP) =  -1618.71456625     A.U. after   15 cycles
 SCF Done:  E(RB3LYP) =  -1618.71487849     A.U. after   14 cycles
 SCF Done:  E(RB3LYP) =  -1618.71542088     A.U. after   14 cycles
 SCF Done:  E(RB3LYP) =  -1618.71531302     A.U. after   13 cycles
 SCF Done:  E(RB3LYP) =  -1618.71549106     A.U. after   13 cycles
 SCF Done:  E(RB3LYP) =  -1618.71550627     A.U. after   12 cycles
 SCF Done:  E(RB3LYP) =  -1618.71552846     A.U. after   12 cycles
 SCF Done:  E(RB3LYP) =  -1618.68758482     A.U. after   15 cycles
 SCF Done:  E(RB3LYP) =  -1618.71582419     A.U. after   14 cycles
 SCF Done:  E(RB3LYP) =  -1618.71472800     A.U. after   14 cycles
 SCF Done:  E(RB3LYP) =  -1618.71617609     A.U. after   14 cycles
 SCF Done:  E(RB3LYP) =  -1618.71616148     A.U. after   14 cycles
 SCF Done:  E(RB3LYP) =  -1618.71640855     A.U. after   13 cycles
 SCF Done:  E(RB3LYP) =  -1618.71650128     A.U. after   13 cycles
 SCF Done:  E(RB3LYP) =  -1618.71651012     A.U. after   12 cycles
 SCF Done:  E(RB3LYP) =  -1618.71651127     A.U. after   10 cycles
 SCF Done:  E(RB3LYP) =  -1618.71651139     A.U. after   10 cycles
 Optimization completed.
    -- Stationary point found.

                         Standard orientation:
 ---------------------------------------------------------------------
 Center     Atomic      Atomic             Coordinates (Angstroms)
 Number     Number       Type             X           Y           Z
 ---------------------------------------------------------------------
      1          6           0        3.964999    0.696159    0.194399
      2          6           0        2.582629    0.979824    0.435380
      3          6           0        1.755633    0.020285   -0.105147
      4          6           0        2.114012    2.184013    1.204310
      5          6           0        4.173228   -0.458185   -0.501211
      6          1           0        4.769780    1.333413    0.539613
      7         16           0        2.684747   -1.241612   -0.898327
      8          1           0        5.112215   -0.895349   -0.805385
      9          6           0        0.295284   -0.050224   -0.062889
     10         16           0       -0.513370   -1.202822    1.014159
     11          6           0       -2.078796   -0.631219    0.510217
     12          6           0       -1.950902    0.391546   -0.421036
     13          6           0       -0.607359    0.720672   -0.748471
     14          1           0       -0.304831    1.477030   -1.459527
     15         16           0       -3.518760    0.964879   -0.925454
     16          6           0       -4.304859   -0.186999    0.129683
     17          6           0       -3.427036   -0.965909    0.826564
     18          1           0       -5.383278   -0.213047    0.165924
     19          1           0       -3.731328   -1.732649    1.525326
     20          1           0        2.615816    2.243486    2.174774
     21          1           0        1.038067    2.151001    1.378057
     22          1           0        2.340679    3.109239    0.664373
 ---------------------------------------------------------------------

 The electronic state is 1-A.
 Alpha  occ. eigenvalues --  -88.88476 -88.88237 -88.87881 -10.22175 -10.21228
 Alpha  occ. eigenvalues --  -10.21168 -10.21105 -10.21093 -10.20477 -10.19382
 Alpha  occ. eigenvalues --  -10.19369 -10.19286 -10.18021 -10.17381  -7.97050
 Alpha  occ. eigenvalues --   -7.96806  -7.96494  -5.93362  -5.93121  -5.92997
 Alpha  occ. eigenvalues --   -5.92784  -5.92758  -5.92600  -5.92409  -5.92344
 Alpha  occ. eigenvalues --   -5.92089  -0.91639  -0.89116  -0.84907  -0.77659
 Alpha  occ. eigenvalues --   -0.77031  -0.75580  -0.71424  -0.70544  -0.67888
 Alpha  occ. eigenvalues --   -0.61321  -0.57478  -0.56731  -0.54271  -0.52038
 Alpha  occ. eigenvalues --   -0.49927  -0.49687  -0.44587  -0.43657  -0.43596
 Alpha  occ. eigenvalues --   -0.42102  -0.41434  -0.39931  -0.39509  -0.39017
 Alpha  occ. eigenvalues --   -0.37672  -0.37368  -0.36519  -0.34902  -0.34274
 Alpha  occ. eigenvalues --   -0.33688  -0.29083  -0.25417  -0.24678  -0.23728
 Alpha  occ. eigenvalues --   -0.22282
 Alpha virt. eigenvalues --   -0.04778  -0.02970  -0.00541  -0.00292   0.00163
 Alpha virt. eigenvalues --    0.00533   0.00729   0.01634   0.01786   0.02773
 Alpha virt. eigenvalues --    0.02879   0.03176   0.03609   0.03935   0.04440

 Mulliken charges:
               1
     1  C   -0.076216
     2  C   -0.059444
     3  C    0.242003
     4  C   -0.714970
     5  C   -0.065129
     6  H    0.127304
     7  S   -0.264677
     8  H    0.160180
     9  C    0.206362
    10  S   -0.572878
    11  C    0.149188
    12  C   -0.511603
    13  C    0.628084
    14  H    0.132393
    15  S   -0.392487
    16  C   -0.223793
    17  C    0.449122
    18  H    0.167566
    19  H    0.135634
    20  H    0.152629
    21  H    0.172209
    22  H    0.158522
 Sum of Mulliken charges =  -0.00000

 Dipole moment (field-independent basis, Debye):
    X=              0.2247    Y=              0.8514    Z=              0.4916  Tot=              1.0085
 Quadrupole moment (field-independent basis, Debye-Ang):
   XX=            -88.3843   YY=           -101.8391   ZZ=           -105.0754
   XY=              4.1578   XZ=             -1.6908   YZ=             -1.2267

 Normal termination of Gaussian 16 at Sat Oct 16 23:51:20 2021.
