 Gaussian 16, Revision C.01,
 Gaussian 16:  ES64L-G16RevC.01  3-Jul-2019

 -------------------------------------
 # opt=modredundant b3lyp/6-311+g(d,p)
 -------------------------------------

 ------------
 pBTTT_75.pdb
 ------------
 Symbolic Z-matrix:
 Charge =  0 Multiplicity = 1

 SCF Done:  E(RB3LYP) =  -1618.67468907     A.U. after   17 cycles
 SCF Done:  E(RB3LYP) =  -1618.70470358     A.U. after   15 cycles
 SCF Done:  E(RB3LYP) =  -1618.71296666     A.U. after   15 cycles
 SCF Done:  E(RB3LYP) =  -1618.71492080     A.U. after   14 cycles
 SCF Done:  E(RB3LYP) =  -1618.71513393     A.U. after   14 cycles
 SCF Done:  E(RB3LYP) =  -1618.71569723     A.U. after   14 cycles
 SCF Done:  E(RB3LYP) =  -1618.71567505     A.U. after   13 cycles
 SCF Done:  E(RB3LYP) =  -1618.71570481     A.U. after   13 cycles
 SCF Done:  E(RB3LYP) =  -1618.71574834     A.U. after   13 cycles
 SCF Done:  E(RB3LYP) =  -1618.71576426     A.U. after   13 cycles
 SCF Done:  E(RB3LYP) =  -1618.70429113     A.U. after   16 cycles
 SCF Done:  E(RB3LYP) =  -1618.71580523     A.U. after   14 cycles
 SCF Done:  E(RB3LYP) =  -1618.71610421     A.U. after   10 cycles
 SCF Done:  E(RB3LYP) =  -1618.71526997     A.U. after   15 cycles
 SCF Done:  E(RB3LYP) =  -1618.71621855     A.U. after   14 cycles
 SCF Done:  E(RB3LYP) =  -1618.71640394     A.U. after   13 cycles
 SCF Done:  E(RB3LYP) =  -1618.71643155     A.U. after   14 cycles
 SCF Done:  E(RB3LYP) =  -1618.71652604     A.U. after   12 cycles
 SCF Done:  E(RB3LYP) =  -1618.71652681     A.U. after   11 cycles
 SCF Done:  E(RB3LYP) =  -1618.71652783     A.U. after   10 cycles
 Optimization completed.
    -- Stationary point found.

                         Standard orientation:
 ---------------------------------------------------------------------
 Center     Atomic      Atomic             Coordinates (Angstroms)
 Number     Number       Type             X           Y           Z
 ---------------------------------------------------------------------
      1          6           0        4.010041    0.324285    0.421312
      2          6           0        2.660257    0.765828    0.599159
      3          6           0        1.753521   -0.099722    0.029180
      4          6           0        2.298875    2.024119    1.339638
      5          6           0        4.116188   -0.849848   -0.264944
      6          1           0        4.866023    0.865882    0.804623
      7         16           0        2.566595   -1.459678   -0.726849
      8          1           0        5.011708   -1.395176   -0.521919
      9          6           0        0.292654   -0.022800    0.005658
     10         16           0       -0.520568    1.131499   -1.066266
     11          6           0       -2.084412    0.564613   -0.551652
     12          6           0       -1.952236   -0.463311    0.373405
     13          6           0       -0.607660   -0.800849    0.686690
     14          1           0       -0.303124   -1.569466    1.383738
     15         16           0       -3.517726   -1.029444    0.893009
     16          6           0       -4.308568    0.132663   -0.147121
     17          6           0       -3.434011    0.910023   -0.849939
     18          1           0       -5.387156    0.163804   -0.172813
     19          1           0       -3.741575    1.681262   -1.542289
     20          1           0        2.810431    2.064546    2.305786
     21          1           0        1.225391    2.087331    1.520685
     22          1           0        2.597591    2.913787    0.775571
 ---------------------------------------------------------------------

 The electronic state is 1-A.
 Alpha  occ. eigenvalues --  -88.88465 -88.88240 -88.87901 -10.22185 -10.21214
 Alpha  occ. eigenvalues --  -10.21166 -10.21100 -10.21091 -10.20448 -10.19374
 Alpha  occ. eigenvalues --  -10.19370 -10.19241 -10.18012 -10.17367  -7.97039
 Alpha  occ. eigenvalues --   -7.96810  -7.96511  -5.93351  -5.93126  -5.92986
 Alpha  occ. eigenvalues --   -5.92801  -5.92762  -5.92589  -5.92425  -5.92347
 Alpha  occ. eigenvalues --   -5.92107  -0.91635  -0.89114  -0.84903  -0.77522
 Alpha  occ. eigenvalues --   -0.77182  -0.75546  -0.71418  -0.70518  -0.67889
 Alpha  occ. eigenvalues --   -0.61314  -0.57566  -0.56722  -0.54066  -0.52107
 Alpha  occ. eigenvalues --   -0.49933  -0.49679  -0.44539  -0.43731  -0.43540
 Alpha  occ. eigenvalues --   -0.42115  -0.41434  -0.39930  -0.39469  -0.39007
 Alpha  occ. eigenvalues --   -0.37678  -0.37322  -0.36591  -0.34896  -0.34253
 Alpha  occ. eigenvalues --   -0.33669  -0.29079  -0.25435  -0.24606  -0.23806
 Alpha  occ. eigenvalues --   -0.22236
 Alpha virt. eigenvalues --   -0.04843  -0.02836  -0.00580  -0.00357  -0.00024
 Alpha virt. eigenvalues --    0.00497   0.00813   0.01590   0.01867   0.02536
 Alpha virt. eigenvalues --    0.03129   0.03248   0.03688   0.04156   0.04405

 Mulliken charges:
               1
     1  C    0.106573
     2  C   -0.486449
     3  C    0.336542
     4  C   -0.821639
     5  C   -0.166336
     6  H    0.125949
     7  S   -0.208984
     8  H    0.160265
     9  C    0.805346
    10  S   -0.489030
    11  C    0.278084
    12  C   -0.480138
    13  C    0.389846
    14  H    0.138378
    15  S   -0.381899
    16  C   -0.209101
    17  C    0.123289
    18  H    0.167537
    19  H    0.135907
    20  H    0.149920
    21  H    0.162377
    22  H    0.163561
 Sum of Mulliken charges =  -0.00000

 Dipole moment (field-independent basis, Debye):
    X=              0.2801    Y=              0.7513    Z=              0.5277  Tot=              0.9599
 Quadrupole moment (field-independent basis, Debye-Ang):
   XX=            -88.1673   YY=           -101.8837   ZZ=           -105.0530
   XY=             -1.4230   XZ=              3.4949   YZ=             -1.1563

 Normal termination of Gaussian 16 at Sun Oct 17 01:18:14 2021.
