 Gaussian 16, Revision C.01,
 Gaussian 16:  ES64L-G16RevC.01  3-Jul-2019

 -------------------------------------
 # opt=modredundant b3lyp/6-311+g(d,p)
 -------------------------------------

 ------------
 pBTTT_45.pdb
 ------------
 Symbolic Z-matrix:
 Charge =  0 Multiplicity = 1

 SCF Done:  E(RB3LYP) =  -1618.67638693     A.U. after   17 cycles
 SCF Done:  E(RB3LYP) =  -1618.70567219     A.U. after   14 cycles
 SCF Done:  E(RB3LYP) =  -1618.71380535     A.U. after   14 cycles
 SCF Done:  E(RB3LYP) =  -1618.71576457     A.U. after   15 cycles
 SCF Done:  E(RB3LYP) =  -1618.71611996     A.U. after   14 cycles
 SCF Done:  E(RB3LYP) =  -1618.71672263     A.U. after   13 cycles
 SCF Done:  E(RB3LYP) =  -1618.71684215     A.U. after   12 cycles
 SCF Done:  E(RB3LYP) =  -1618.71690560     A.U. after   12 cycles
 SCF Done:  E(RB3LYP) =  -1618.71698493     A.U. after   11 cycles
 SCF Done:  E(RB3LYP) =  -1618.71712985     A.U. after   12 cycles
 SCF Done:  E(RB3LYP) =  -1618.71723794     A.U. after   13 cycles
 SCF Done:  E(RB3LYP) =  -1618.71726003     A.U. after   12 cycles
 SCF Done:  E(RB3LYP) =  -1618.71726902     A.U. after   11 cycles
 SCF Done:  E(RB3LYP) =  -1618.71726974     A.U. after   10 cycles
 SCF Done:  E(RB3LYP) =  -1618.71727011     A.U. after   10 cycles
 SCF Done:  E(RB3LYP) =  -1618.71727014     A.U. after    8 cycles
 Optimization completed.
    -- Stationary point found.

                         Standard orientation:
 ---------------------------------------------------------------------
 Center     Atomic      Atomic             Coordinates (Angstroms)
 Number     Number       Type             X           Y           Z
 ---------------------------------------------------------------------
      1          6           0        4.031325    0.281173    0.240329
      2          6           0        2.709321    0.807414    0.380667
      3          6           0        1.745088   -0.115567    0.025229
      4          6           0        2.447843    2.199928    0.890425
      5          6           0        4.069963   -1.006561   -0.208152
      6          1           0        4.920221    0.849664    0.484302
      7         16           0        2.481942   -1.623087   -0.495795
      8          1           0        4.933581   -1.629616   -0.383820
      9          6           0        0.293156   -0.015156    0.023005
     10         16           0       -0.521223    1.419467   -0.627457
     11          6           0       -2.085856    0.715729   -0.328480
     12          6           0       -1.954525   -0.554091    0.218753
     13          6           0       -0.612857   -0.970241    0.420286
     14          1           0       -0.314336   -1.915269    0.852721
     15         16           0       -3.521289   -1.253847    0.530132
     16          6           0       -4.310379    0.181561   -0.083427
     17          6           0       -3.433573    1.141841   -0.499586
     18          1           0       -5.388849    0.220150   -0.099981
     19          1           0       -3.739397    2.094736   -0.908545
     20          1           0        3.218615    2.491543    1.608139
     21          1           0        1.478261    2.277054    1.384185
     22          1           0        2.463995    2.935041    0.078634
 ---------------------------------------------------------------------

 The electronic state is 1-A.
 Alpha  occ. eigenvalues --  -88.88440 -88.88349 -88.88002 -10.22415 -10.21492
 Alpha  occ. eigenvalues --  -10.21174 -10.21117 -10.21049 -10.20458 -10.19373
 Alpha  occ. eigenvalues --  -10.19292 -10.19248 -10.18098 -10.17491  -7.97013
 Alpha  occ. eigenvalues --   -7.96925  -7.96618  -5.93326  -5.93245  -5.92961
 Alpha  occ. eigenvalues --   -5.92913  -5.92882  -5.92562  -5.92535  -5.92453
 Alpha  occ. eigenvalues --   -5.92207  -0.91688  -0.89210  -0.84937  -0.77667
 Alpha  occ. eigenvalues --   -0.77249  -0.75685  -0.71442  -0.70480  -0.68055
 Alpha  occ. eigenvalues --   -0.61423  -0.57775  -0.56908  -0.53700  -0.52250
 Alpha  occ. eigenvalues --   -0.50043  -0.49725  -0.44524  -0.43870  -0.43542
 Alpha  occ. eigenvalues --   -0.42064  -0.41525  -0.40071  -0.39484  -0.39009
 Alpha  occ. eigenvalues --   -0.37845  -0.37535  -0.36709  -0.34862  -0.34234
 Alpha  occ. eigenvalues --   -0.33902  -0.29173  -0.26024  -0.25355  -0.23795
 Alpha  occ. eigenvalues --   -0.21130
 Alpha virt. eigenvalues --   -0.05696  -0.01950  -0.00603  -0.00434  -0.00003
 Alpha virt. eigenvalues --    0.00497   0.01000   0.01475   0.01966   0.02574
 Alpha virt. eigenvalues --    0.03063   0.03453   0.03895   0.04091   0.04689

 Mulliken charges:
               1
     1  C   -0.017389
     2  C   -0.286618
     3  C    0.466042
     4  C   -0.845115
     5  C   -0.107864
     6  H    0.125434
     7  S   -0.358436
     8  H    0.160205
     9  C    0.615757
    10  S   -0.560585
    11  C    0.285531
    12  C   -0.609042
    13  C    0.675119
    14  H    0.143417
    15  S   -0.392851
    16  C   -0.215880
    17  C    0.142595
    18  H    0.167317
    19  H    0.135251
    20  H    0.143294
    21  H    0.161316
    22  H    0.172503
 Sum of Mulliken charges =  -0.00000

 Dipole moment (field-independent basis, Debye):
    X=              0.3696    Y=              0.8494    Z=              0.3499  Tot=              0.9903
 Quadrupole moment (field-independent basis, Debye-Ang):
   XX=            -88.0306   YY=            -98.9735   ZZ=           -108.0473
   XY=             -1.9102   XZ=              2.1644   YZ=             -0.8688

 Normal termination of Gaussian 16 at Sun Oct 17 00:59:02 2021.
