 Gaussian 16, Revision C.01,
 Gaussian 16:  ES64L-G16RevC.01  3-Jul-2019

 -------------------------------------
 # opt=modredundant b3lyp/6-311+g(d,p)
 -------------------------------------

 ------------
 pBTTT_10.pdb
 ------------
 Symbolic Z-matrix:
 Charge =  0 Multiplicity = 1

 SCF Done:  E(RB3LYP) =  -1618.67770062     A.U. after   17 cycles
 SCF Done:  E(RB3LYP) =  -1618.70606316     A.U. after   15 cycles
 SCF Done:  E(RB3LYP) =  -1618.71350904     A.U. after   14 cycles
 SCF Done:  E(RB3LYP) =  -1618.71540987     A.U. after   13 cycles
 SCF Done:  E(RB3LYP) =  -1618.71582903     A.U. after   14 cycles
 SCF Done:  E(RB3LYP) =  -1618.71614807     A.U. after   12 cycles
 SCF Done:  E(RB3LYP) =  -1618.71621521     A.U. after   12 cycles
 SCF Done:  E(RB3LYP) =  -1618.71620660     A.U. after   12 cycles
 SCF Done:  E(RB3LYP) =  -1618.71622594     A.U. after   11 cycles
 SCF Done:  E(RB3LYP) =  -1618.71623631     A.U. after   10 cycles
 SCF Done:  E(RB3LYP) =  -1618.71624614     A.U. after   11 cycles
 SCF Done:  E(RB3LYP) =  -1618.71624778     A.U. after   10 cycles
 SCF Done:  E(RB3LYP) =  -1618.71624818     A.U. after    9 cycles
 Optimization completed.
    -- Stationary point found.

                         Standard orientation:
 ---------------------------------------------------------------------
 Center     Atomic      Atomic             Coordinates (Angstroms)
 Number     Number       Type             X           Y           Z
 ---------------------------------------------------------------------
      1          6           0       -4.042586    0.271104   -0.056571
      2          6           0       -2.732231    0.839801   -0.091748
      3          6           0       -1.741287   -0.125807   -0.011772
      4          6           0       -2.518945    2.325400   -0.213274
      5          6           0       -4.056784   -1.087186    0.052134
      6          1           0       -4.942611    0.870091   -0.115729
      7         16           0       -2.454787   -1.729584    0.124995
      8          1           0       -4.906500   -1.750946    0.094405
      9          6           0       -0.294503   -0.015263   -0.007684
     10         16           0        0.530428    1.551949    0.145848
     11          6           0        2.091696    0.785907    0.080816
     12          6           0        1.957527   -0.589589   -0.050053
     13          6           0        0.617751   -1.044675   -0.104568
     14          1           0        0.328294   -2.080283   -0.217830
     15         16           0        3.523143   -1.354545   -0.126658
     16          6           0        4.315122    0.199129    0.019949
     17          6           0        3.439233    1.241966    0.120129
     18          1           0        5.393590    0.239534    0.024344
     19          1           0        3.746489    2.273910    0.217591
     20          1           0       -3.471542    2.826996   -0.393600
     21          1           0       -1.848113    2.577824   -1.038901
     22          1           0       -2.090093    2.753029    0.698633
 ---------------------------------------------------------------------

 The electronic state is 1-A.
 Alpha  occ. eigenvalues --  -88.88432 -88.88387 -88.88064 -10.22690 -10.21855
 Alpha  occ. eigenvalues --  -10.21161 -10.21044 -10.20977 -10.20567 -10.19461
 Alpha  occ. eigenvalues --  -10.19349 -10.19116 -10.18207 -10.17756  -7.97009
 Alpha  occ. eigenvalues --   -7.96961  -7.96698  -5.93333  -5.93275  -5.93000
 Alpha  occ. eigenvalues --   -5.92967  -5.92910  -5.92618  -5.92529  -5.92507
 Alpha  occ. eigenvalues --   -5.92272  -0.91711  -0.89321  -0.84936  -0.77965
 Alpha  occ. eigenvalues --   -0.77274  -0.75802  -0.71423  -0.70485  -0.68296
 Alpha  occ. eigenvalues --   -0.61545  -0.58043  -0.57017  -0.53378  -0.52426
 Alpha  occ. eigenvalues --   -0.50244  -0.49793  -0.44551  -0.43956  -0.43736
 Alpha  occ. eigenvalues --   -0.42022  -0.41677  -0.40285  -0.39527  -0.38789
 Alpha  occ. eigenvalues --   -0.38175  -0.38011  -0.36689  -0.34732  -0.34459
 Alpha  occ. eigenvalues --   -0.33762  -0.29360  -0.26715  -0.25582  -0.23825
 Alpha  occ. eigenvalues --   -0.20378
 Alpha virt. eigenvalues --   -0.06272  -0.01575  -0.00578  -0.00357   0.00224
 Alpha virt. eigenvalues --    0.00452   0.01473   0.01504   0.02080   0.02545
 Alpha virt. eigenvalues --    0.03042   0.03256   0.03746   0.04475   0.04822

 Mulliken charges:
               1
     1  C    0.068616
     2  C    0.271233
     3  C    0.619133
     4  C   -0.977985
     5  C   -0.154746
     6  H    0.120180
     7  S   -0.618715
     8  H    0.159906
     9  C    0.390768
    10  S   -0.652543
    11  C    0.232673
    12  C    0.204866
    13  C    0.093041
    14  H    0.137824
    15  S   -0.400430
    16  C   -0.143517
    17  C   -0.140447
    18  H    0.166908
    19  H    0.133443
    20  H    0.144636
    21  H    0.168847
    22  H    0.176307
 Sum of Mulliken charges =  -0.00000

 Dipole moment (field-independent basis, Debye):
    X=             -0.5245    Y=              0.9371    Z=             -0.0986  Tot=              1.0784
 Quadrupole moment (field-independent basis, Debye-Ang):
   XX=            -87.7207   YY=            -97.3116   ZZ=           -109.9037
   XY=              1.8717   XZ=              0.5246   YZ=              0.2121

 Normal termination of Gaussian 16 at Sun Oct 17 00:46:35 2021.
