 Gaussian 16, Revision C.01,
 Gaussian 16:  ES64L-G16RevC.01  3-Jul-2019

 -------------------------------------
 # opt=modredundant b3lyp/6-311+g(d,p)
 -------------------------------------

 -------------
 pBTTT_-65.pdb
 -------------
 Symbolic Z-matrix:
 Charge =  0 Multiplicity = 1

 SCF Done:  E(RB3LYP) =  -1618.67549063     A.U. after   17 cycles
 SCF Done:  E(RB3LYP) =  -1618.70544127     A.U. after   14 cycles
 SCF Done:  E(RB3LYP) =  -1618.71366552     A.U. after   14 cycles
 SCF Done:  E(RB3LYP) =  -1618.71543532     A.U. after   14 cycles
 SCF Done:  E(RB3LYP) =  -1618.71560135     A.U. after   14 cycles
 SCF Done:  E(RB3LYP) =  -1618.71617396     A.U. after   13 cycles
 SCF Done:  E(RB3LYP) =  -1618.71614987     A.U. after   13 cycles
 SCF Done:  E(RB3LYP) =  -1618.71625806     A.U. after   13 cycles
 SCF Done:  E(RB3LYP) =  -1618.71631554     A.U. after   12 cycles
 SCF Done:  E(RB3LYP) =  -1618.71655137     A.U. after   12 cycles
 SCF Done:  E(RB3LYP) =  -1618.71641773     A.U. after   15 cycles
 SCF Done:  E(RB3LYP) =  -1618.71682334     A.U. after   13 cycles
 SCF Done:  E(RB3LYP) =  -1618.71687390     A.U. after   12 cycles
 SCF Done:  E(RB3LYP) =  -1618.71689367     A.U. after   12 cycles
 SCF Done:  E(RB3LYP) =  -1618.71690219     A.U. after   12 cycles
 SCF Done:  E(RB3LYP) =  -1618.71690454     A.U. after   10 cycles
 SCF Done:  E(RB3LYP) =  -1618.71690464     A.U. after    9 cycles
 Optimization completed.
    -- Stationary point found.

                         Standard orientation:
 ---------------------------------------------------------------------
 Center     Atomic      Atomic             Coordinates (Angstroms)
 Number     Number       Type             X           Y           Z
 ---------------------------------------------------------------------
      1          6           0       -4.019698    0.301792    0.358855
      2          6           0       -2.681062    0.775844    0.533508
      3          6           0       -1.750624   -0.104351    0.024591
      4          6           0       -2.358313    2.076035    1.218497
      5          6           0       -4.096753   -0.910380   -0.262308
      6          1           0       -4.890003    0.848027    0.701140
      7         16           0       -2.530392   -1.515923   -0.669598
      8          1           0       -4.979044   -1.484950   -0.500370
      9          6           0       -0.292740   -0.016425    0.016336
     10         16           0        0.520527    1.262824   -0.903040
     11          6           0        2.084762    0.633311   -0.467806
     12          6           0        1.952712   -0.506026    0.315923
     13          6           0        0.608916   -0.878344    0.588100
     14          1           0        0.305907   -1.727541    1.185095
     15         16           0        3.518454   -1.134094    0.757585
     16          6           0        4.308966    0.153689   -0.122673
     17          6           0        3.433853    1.015747   -0.718052
     18          1           0        5.387525    0.187702   -0.145033
     19          1           0        3.741040    1.870631   -1.304207
     20          1           0       -2.956438    2.190205    2.126920
     21          1           0       -2.581301    2.931430    0.572105
     22          1           0       -1.305227    2.134226    1.495380
 ---------------------------------------------------------------------

 The electronic state is 1-A.
 Alpha  occ. eigenvalues --  -88.88457 -88.88271 -88.87940 -10.22247 -10.21289
 Alpha  occ. eigenvalues --  -10.21168 -10.21107 -10.21077 -10.20446 -10.19370
 Alpha  occ. eigenvalues --  -10.19338 -10.19246 -10.18038 -10.17391  -7.97031
 Alpha  occ. eigenvalues --   -7.96843  -7.96551  -5.93343  -5.93160  -5.92978
 Alpha  occ. eigenvalues --   -5.92842  -5.92797  -5.92580  -5.92466  -5.92377
 Alpha  occ. eigenvalues --   -5.92145  -0.91649  -0.89144  -0.84912  -0.77540
 Alpha  occ. eigenvalues --   -0.77217  -0.75588  -0.71425  -0.70504  -0.67932
 Alpha  occ. eigenvalues --   -0.61345  -0.57623  -0.56786  -0.53944  -0.52149
 Alpha  occ. eigenvalues --   -0.49960  -0.49688  -0.44529  -0.43787  -0.43523
 Alpha  occ. eigenvalues --   -0.42099  -0.41451  -0.39963  -0.39471  -0.39020
 Alpha  occ. eigenvalues --   -0.37712  -0.37364  -0.36638  -0.34891  -0.34250
 Alpha  occ. eigenvalues --   -0.33740  -0.29097  -0.25532  -0.24999  -0.23786
 Alpha  occ. eigenvalues --   -0.21838
 Alpha virt. eigenvalues --   -0.05139  -0.02501  -0.00599  -0.00398  -0.00044
 Alpha virt. eigenvalues --    0.00499   0.00863   0.01538   0.01910   0.02515
 Alpha virt. eigenvalues --    0.03108   0.03362   0.03753   0.04216   0.04448

 Mulliken charges:
               1
     1  C    0.087304
     2  C   -0.498417
     3  C    0.354145
     4  C   -0.819193
     5  C   -0.172736
     6  H    0.125944
     7  S   -0.239586
     8  H    0.160440
     9  C    0.779165
    10  S   -0.509418
    11  C    0.256222
    12  C   -0.529343
    13  C    0.525928
    14  H    0.140189
    15  S   -0.379351
    16  C   -0.214388
    17  C    0.156797
    18  H    0.167509
    19  H    0.135652
    20  H    0.146875
    21  H    0.165939
    22  H    0.160325
 Sum of Mulliken charges =  -0.00000

 Dipole moment (field-independent basis, Debye):
    X=             -0.3121    Y=              0.7721    Z=              0.4737  Tot=              0.9581
 Quadrupole moment (field-independent basis, Debye-Ang):
   XX=            -88.1171   YY=           -100.7243   ZZ=           -106.2248
   XY=              1.6926   XZ=             -3.0404   YZ=             -1.1021

 Normal termination of Gaussian 16 at Sun Oct 17 00:08:53 2021.
